* GENERATED BY CHARMM-GUI (HTTP://WWW.CHARMM-GUI.ORG) V3.7 ON OCT, 22. 2024. JOB
* INPUT GENERATION
*  DATE:    10/22/24     10:24:24      CREATED BY USER: apache
*
     43236  EXT
         1         1  CHL1      C3             -1.0211360111        1.5084384516       17.9168247055  MEMB      1               0.0000000000
         2         1  CHL1      H3             -2.0404823845        1.7914129669       17.5524120943  MEMB      1               0.0000000000
         3         1  CHL1      O3             -1.0605395855        1.2837268254       19.3171538806  MEMB      1               0.0000000000
         4         1  CHL1      H3'            -1.3044416559        2.1491369489       19.6997634190  MEMB      1               0.0000000000
         5         1  CHL1      C4             -0.5341676230        0.2374412630       17.2122247382  MEMB      1               0.0000000000
         6         1  CHL1      H4A             0.3855759485       -0.0956471384       17.7356233195  MEMB      1               0.0000000000
         7         1  CHL1      H4B            -1.3109102689       -0.5414467910       17.4002187290  MEMB      1               0.0000000000
         8         1  CHL1      C5             -0.2481540598        0.4218695857       15.7290826653  MEMB      1               0.0000000000
         9         1  CHL1      C6             -0.8156236103       -0.3696374104       14.8087143088  MEMB      1               0.0000000000
        10         1  CHL1      H6             -1.4765851003       -1.1880842381       15.1334967710  MEMB      1               0.0000000000
        11         1  CHL1      C7             -0.5603344493       -0.2639970946       13.3308447529  MEMB      1               0.0000000000
        12         1  CHL1      H7A            -0.3750516964       -1.2742482167       12.9055738843  MEMB      1               0.0000000000
        13         1  CHL1      H7B            -1.4772952329        0.1339794220       12.8448099467  MEMB      1               0.0000000000
        14         1  CHL1      C8              0.6282797299        0.6672475241       12.9428876798  MEMB      1               0.0000000000
        15         1  CHL1      H8              1.5740875819        0.1052570427       13.1034080774  MEMB      1               0.0000000000
        16         1  CHL1      C14             0.5261912324        1.0838637201       11.4721562261  MEMB      1               0.0000000000
        17         1  CHL1      H14            -0.4155064499        1.6895090059       11.4048214634  MEMB      1               0.0000000000
        18         1  CHL1      C15             0.3464851468       -0.0317690577       10.4384899552  MEMB      1               0.0000000000
        19         1  CHL1      H15A            1.0223486387       -0.8813571567       10.6772351483  MEMB      1               0.0000000000
        20         1  CHL1      H15B           -0.7032345520       -0.3862893271       10.4316250809  MEMB      1               0.0000000000
        21         1  CHL1      C16             0.7517050844        0.5992706671        9.0973511820  MEMB      1               0.0000000000
        22         1  CHL1      H16A            1.6337371415        0.0488819013        8.6989089459  MEMB      1               0.0000000000
        23         1  CHL1      H16B           -0.0600692524        0.5598165480        8.3447529659  MEMB      1               0.0000000000
        24         1  CHL1      C17             1.1806840052        2.0551266263        9.4128900380  MEMB      1               0.0000000000
        25         1  CHL1      H17             0.2456259606        2.6648040906        9.4011993043  MEMB      1               0.0000000000
        26         1  CHL1      C13             1.6234576726        1.9943604808       10.9131846407  MEMB      1               0.0000000000
        27         1  CHL1      C18             3.0067823375        1.3085138111       10.9787086048  MEMB      1               0.0000000000
        28         1  CHL1      H18A            3.0175225398        0.3485292030       10.4275403704  MEMB      1               0.0000000000
        29         1  CHL1      H18B            3.7751363436        1.9723463735       10.5293896296  MEMB      1               0.0000000000
        30         1  CHL1      H18C            3.3035273151        1.0901753407       12.0216235903  MEMB      1               0.0000000000
        31         1  CHL1      C12             1.6056096405        3.2740169082       11.7763815795  MEMB      1               0.0000000000
        32         1  CHL1      H12A            2.4585950560        3.9242649905       11.4939115668  MEMB      1               0.0000000000
        33         1  CHL1      H12B            0.6626068520        3.8266097979       11.5767444623  MEMB      1               0.0000000000
        34         1  CHL1      C11             1.6872829840        2.9563347653       13.2987042251  MEMB      1               0.0000000000
        35         1  CHL1      H11A            2.6888686963        2.5332587769       13.5040185710  MEMB      1               0.0000000000
        36         1  CHL1      H11B            1.5859816345        3.9057068708       13.8618915985  MEMB      1               0.0000000000
        37         1  CHL1      C9              0.6303423459        1.9262198637       13.8114256789  MEMB      1               0.0000000000
        38         1  CHL1      H9             -0.3623243769        2.3967833185       13.6228927701  MEMB      1               0.0000000000
        39         1  CHL1      C10             0.6457678243        1.6240143473       15.3462764124  MEMB      1               0.0000000000
        40         1  CHL1      C19             2.0875930202        1.3085717562       15.7868059097  MEMB      1               0.0000000000
        41         1  CHL1      H19A            2.7319910240        2.2026839277       15.6648215750  MEMB      1               0.0000000000
        42         1  CHL1      H19B            2.1075983818        1.0256807997       16.8599045548  MEMB      1               0.0000000000
        43         1  CHL1      H19C            2.4930923355        0.4653390844       15.1921480443  MEMB      1               0.0000000000
        44         1  CHL1      C1              0.1386536486        2.8638297285       16.1274727806  MEMB      1               0.0000000000
        45         1  CHL1      H1A             0.8284493222        3.7182396951       15.9665508928  MEMB      1               0.0000000000
        46         1  CHL1      H1B            -0.8464773265        3.1253197546       15.6934915440  MEMB      1               0.0000000000
        47         1  CHL1      C2             -0.0549184293        2.6551192887       17.6397781661  MEMB      1               0.0000000000
        48         1  CHL1      H2A            -0.4806956146        3.5603878942       18.0975157397  MEMB      1               0.0000000000
        49         1  CHL1      H2B             0.9241560549        2.4819089390       18.1263276440  MEMB      1               0.0000000000
        50         1  CHL1      C20             2.0751628151        2.6366600261        8.2962471931  MEMB      1               0.0000000000
        51         1  CHL1      H20             3.0422702655        2.0852413228        8.2524116979  MEMB      1               0.0000000000
        52         1  CHL1      C21             2.3853449326        4.0949566078        8.6903671075  MEMB      1               0.0000000000
        53         1  CHL1      H21A            3.2504136530        4.1339320158        9.3890540099  MEMB      1               0.0000000000
        54         1  CHL1      H21B            1.5084681981        4.5549244240        9.1927736768  MEMB      1               0.0000000000
        55         1  CHL1      H21C            2.6347742497        4.7284800718        7.8173228693  MEMB      1               0.0000000000
        56         1  CHL1      C22             1.4025905567        2.5513522080        6.8686652829  MEMB      1               0.0000000000
        57         1  CHL1      H22A            0.3029109157        2.5796643192        6.9836496487  MEMB      1               0.0000000000
        58         1  CHL1      H22B            1.6227262180        3.4633090224        6.2858595434  MEMB      1               0.0000000000
        59         1  CHL1      C23             1.8264984656        1.3700130343        5.9501226642  MEMB      1               0.0000000000
        60         1  CHL1      H23A            2.8728184132        1.5449125094        5.6165890108  MEMB      1               0.0000000000
        61         1  CHL1      H23B            1.8542840281        0.4278691998        6.5356490528  MEMB      1               0.0000000000
        62         1  CHL1      C24             0.9263836730        1.1330138337        4.6960830427  MEMB      1               0.0000000000
        63         1  CHL1      H24A            0.8366791736        0.0313057398        4.5502155616  MEMB      1               0.0000000000
        64         1  CHL1      H24B           -0.0974810141        1.5095442000        4.8846882945  MEMB      1               0.0000000000
        65         1  CHL1      C25             1.5035365810        1.7001031208        3.3718208989  MEMB      1               0.0000000000
        66         1  CHL1      H25             1.7452823444        2.7739732243        3.5559409588  MEMB      1               0.0000000000
        67         1  CHL1      C26             2.8126005784        0.9593191537        3.0471254742  MEMB      1               0.0000000000
        68         1  CHL1      H26A            2.7753559320        0.4405765500        2.0662661323  MEMB      1               0.0000000000
        69         1  CHL1      H26B            3.6644546629        1.6716574981        3.0597560961  MEMB      1               0.0000000000
        70         1  CHL1      H26C            2.9999905189        0.1886224007        3.8293310406  MEMB      1               0.0000000000
        71         1  CHL1      C27             0.5455775218        1.6740966417        2.1545829902  MEMB      1               0.0000000000
        72         1  CHL1      H27A            0.2106171756        0.6474359931        1.9036609615  MEMB      1               0.0000000000
        73         1  CHL1      H27B           -0.3451715446        2.3133122159        2.3223738536  MEMB      1               0.0000000000
        74         1  CHL1      H27C            1.0726368933        2.0762953413        1.2618383017  MEMB      1               0.0000000000
        75         2  SLPC      N               4.4039661347       -3.3011441056       18.5324894165  MEMB      2               0.0000000000
        76         2  SLPC      C13             5.6245835729       -4.0235827975       19.0382931225  MEMB      2               0.0000000000
        77         2  SLPC      H13A            5.9097439146       -4.7851241045       18.3012280741  MEMB      2               0.0000000000
        78         2  SLPC      H13B            6.4655912095       -3.3674734691       19.1836560110  MEMB      2               0.0000000000
        79         2  SLPC      H13C            5.4096057888       -4.5746438763       19.9416553049  MEMB      2               0.0000000000
        80         2  SLPC      C14             4.7934020079       -2.7402234004       17.2072410961  MEMB      2               0.0000000000
        81         2  SLPC      H14A            5.7211064995       -2.1971989299       17.2719095798  MEMB      2               0.0000000000
        82         2  SLPC      H14B            5.0318728759       -3.5726558031       16.5275949388  MEMB      2               0.0000000000
        83         2  SLPC      H14C            4.0052257017       -2.1918384916       16.7228741519  MEMB      2               0.0000000000
        84         2  SLPC      C15             4.0110950105       -2.2603063833       19.5279731532  MEMB      2               0.0000000000
        85         2  SLPC      H15A            4.8624555068       -1.6675582586       19.8348230956  MEMB      2               0.0000000000
        86         2  SLPC      H15B            3.2548074572       -1.5896017689       19.1350515094  MEMB      2               0.0000000000
        87         2  SLPC      H15C            3.6134909520       -2.7435804570       20.4191696664  MEMB      2               0.0000000000
        88         2  SLPC      C12             3.3029896003       -4.3279020036       18.3341113959  MEMB      2               0.0000000000
        89         2  SLPC      H12A            2.3475305283       -3.8462301163       18.1573612238  MEMB      2               0.0000000000
        90         2  SLPC      H12B            3.2453549987       -4.9325925465       19.2241354378  MEMB      2               0.0000000000
        91         2  SLPC      C11             3.5084616850       -5.3098985023       17.1758966812  MEMB      2               0.0000000000
        92         2  SLPC      H11A            3.2182650130       -4.7488135652       16.2485958994  MEMB      2               0.0000000000
        93         2  SLPC      H11B            2.8458926740       -6.1836333465       17.2679280640  MEMB      2               0.0000000000
        94         2  SLPC      P               5.4438461352       -6.1070737451       15.7259921600  MEMB      2               0.0000000000
        95         2  SLPC      O13             5.8485828902       -4.7868920302       15.1886745777  MEMB      2               0.0000000000
        96         2  SLPC      O14             6.4539737508       -7.1738595579       15.8579272322  MEMB      2               0.0000000000
        97         2  SLPC      O12             4.8295723932       -5.8334471341       17.1574582350  MEMB      2               0.0000000000
        98         2  SLPC      O11             4.1269885318       -6.6039279751       15.0182669953  MEMB      2               0.0000000000
        99         2  SLPC      C1              3.5234026842       -5.9260543248       13.9131777526  MEMB      2               0.0000000000
       100         2  SLPC      HA              2.6101196109       -5.3857564574       14.2400639756  MEMB      2               0.0000000000
       101         2  SLPC      HB              4.2117373416       -5.1925685024       13.4298275689  MEMB      2               0.0000000000
       102         2  SLPC      C2              3.1250197981       -6.9777363780       12.8697710247  MEMB      2               0.0000000000
       103         2  SLPC      HS              2.1446353029       -7.3983324380       13.1807229703  MEMB      2               0.0000000000
       104         2  SLPC      O21             4.1655166684       -7.9356483043       12.8514655693  MEMB      2               0.0000000000
       105         2  SLPC      C21             3.8452513250       -9.1583822282       13.1229352197  MEMB      2               0.0000000000
       106         2  SLPC      O22             2.7343450724       -9.6294330638       13.2445355820  MEMB      2               0.0000000000
       107         2  SLPC      C22             5.1270594239       -9.9531556403       13.1200531645  MEMB      2               0.0000000000
       108         2  SLPC      H2R             5.7241570169       -9.5484960030       13.9658582085  MEMB      2               0.0000000000
       109         2  SLPC      H2S             4.9123267617      -11.0175143103       13.3071350776  MEMB      2               0.0000000000
       110         2  SLPC      C3              3.0014224906       -6.4366366456       11.4441702867  MEMB      2               0.0000000000
       111         2  SLPC      HX              2.1281056204       -5.7591843220       11.4406370305  MEMB      2               0.0000000000
       112         2  SLPC      HY              2.7959343585       -7.2959688311       10.7683636627  MEMB      2               0.0000000000
       113         2  SLPC      O31             4.2115870450       -5.7494800683       11.0602059351  MEMB      2               0.0000000000
       114         2  SLPC      C31             4.0252323776       -4.9944194190       10.0116138412  MEMB      2               0.0000000000
       115         2  SLPC      O32             3.0051009217       -4.9390597544        9.3460163789  MEMB      2               0.0000000000
       116         2  SLPC      C32             5.2928964751       -4.2110457729        9.7171945801  MEMB      2               0.0000000000
       117         2  SLPC      H2X             5.5337240049       -3.5935834146       10.6085101081  MEMB      2               0.0000000000
       118         2  SLPC      H2Y             5.0510269403       -3.5388169536        8.8732074858  MEMB      2               0.0000000000
       119         2  SLPC      C23             5.8596258971       -9.7260023963       11.7896691824  MEMB      2               0.0000000000
       120         2  SLPC      H3R             6.9042196392      -10.1020683859       11.8798236562  MEMB      2               0.0000000000
       121         2  SLPC      H3S             5.9720001294       -8.6342534419       11.5872005831  MEMB      2               0.0000000000
       122         2  SLPC      C24             5.2386438027      -10.4039044292       10.5529124065  MEMB      2               0.0000000000
       123         2  SLPC      H4R             5.6136487605      -11.4464598528       10.4630453775  MEMB      2               0.0000000000
       124         2  SLPC      H4S             5.6567026074       -9.7967106747        9.7270154203  MEMB      2               0.0000000000
       125         2  SLPC      C25             3.7206120679      -10.4386077439       10.3039022597  MEMB      2               0.0000000000
       126         2  SLPC      H5R             3.2969557874       -9.4237440294       10.4399080872  MEMB      2               0.0000000000
       127         2  SLPC      H5S             3.2195528831      -11.1190807374       11.0181951991  MEMB      2               0.0000000000
       128         2  SLPC      C26             3.4300857301      -10.9209721895        8.8685209081  MEMB      2               0.0000000000
       129         2  SLPC      H6R             3.8745645789      -11.9316974543        8.7284623205  MEMB      2               0.0000000000
       130         2  SLPC      H6S             3.9528211587      -10.2364381939        8.1684430262  MEMB      2               0.0000000000
       131         2  SLPC      C27             1.9532465567      -10.9575839214        8.4352015992  MEMB      2               0.0000000000
       132         2  SLPC      H7R             1.4410984232      -11.7847088360        8.9765150041  MEMB      2               0.0000000000
       133         2  SLPC      H7S             1.9308960489      -11.2047384960        7.3474091276  MEMB      2               0.0000000000
       134         2  SLPC      C28             1.1697305041       -9.6455735319        8.6605177775  MEMB      2               0.0000000000
       135         2  SLPC      H8R             1.0231916221       -9.5271075113        9.7587100793  MEMB      2               0.0000000000
       136         2  SLPC      H8S             0.1529301996       -9.7651508303        8.2253682170  MEMB      2               0.0000000000
       137         2  SLPC      C29             1.8363330345       -8.4044246053        8.1143057617  MEMB      2               0.0000000000
       138         2  SLPC      H9R             2.2851312215       -7.7550580842        8.8769164268  MEMB      2               0.0000000000
       139         2  SLPC      C210            1.9267999248       -8.0012430586        6.8347858022  MEMB      2               0.0000000000
       140         2  SLPC      H10R            2.4556334392       -7.0554014144        6.6305169878  MEMB      2               0.0000000000
       141         2  SLPC      C211            1.3766944643       -8.6960946999        5.6149803102  MEMB      2               0.0000000000
       142         2  SLPC      H11R            0.5853213519       -9.4273508096        5.8934142644  MEMB      2               0.0000000000
       143         2  SLPC      H11S            2.1784008115       -9.2970414633        5.1324715072  MEMB      2               0.0000000000
       144         2  SLPC      C212            0.8193098741       -7.6786325495        4.6490737021  MEMB      2               0.0000000000
       145         2  SLPC      H12R           -0.2301875059       -7.4058324383        4.8375471468  MEMB      2               0.0000000000
       146         2  SLPC      C213            1.4462380512       -7.0316659574        3.6512731142  MEMB      2               0.0000000000
       147         2  SLPC      H13R            0.8443105689       -6.3676861966        3.0116350217  MEMB      2               0.0000000000
       148         2  SLPC      C214            2.8790428368       -7.1405314175        3.2144154232  MEMB      2               0.0000000000
       149         2  SLPC      H14R            3.3835204471       -8.0265442182        3.6523970362  MEMB      2               0.0000000000
       150         2  SLPC      H14S            3.4462636482       -6.2430248235        3.5507856108  MEMB      2               0.0000000000
       151         2  SLPC      C215            2.9186983703       -7.2036328569        1.6755681218  MEMB      2               0.0000000000
       152         2  SLPC      H15R            3.9802847371       -7.2100560313        1.3413578995  MEMB      2               0.0000000000
       153         2  SLPC      H15S            2.4884247508       -6.2649605337        1.2708914964  MEMB      2               0.0000000000
       154         2  SLPC      C216            2.2053428091       -8.4405143968        1.0858047129  MEMB      2               0.0000000000
       155         2  SLPC      H16R            2.0192142687       -8.2854580917        0.0015414920  MEMB      2               0.0000000000
       156         2  SLPC      H16S            1.2219597524       -8.6196012002        1.5697935012  MEMB      2               0.0000000000
       157         2  SLPC      C217            3.1127963179       -9.6547307216        1.2436267995  MEMB      2               0.0000000000
       158         2  SLPC      H17R            3.3762691205       -9.7501708878        2.3225247331  MEMB      2               0.0000000000
       159         2  SLPC      H17S            4.0155869153       -9.3827217920        0.6482506466  MEMB      2               0.0000000000
       160         2  SLPC      C218            2.6459680790      -11.0189514459        0.7533634180  MEMB      2               0.0000000000
       161         2  SLPC      H18R            1.6270301400      -11.2531989074        1.1268489581  MEMB      2               0.0000000000
       162         2  SLPC      H18S            3.3471268151      -11.8093126522        1.1016364951  MEMB      2               0.0000000000
       163         2  SLPC      H18T            2.6704142082      -11.0358883353       -0.3531117483  MEMB      2               0.0000000000
       164         2  SLPC      C33             6.4412107098       -5.1948098261        9.3907582462  MEMB      2               0.0000000000
       165         2  SLPC      H3X             6.0321601959       -6.0993910008        8.8840201407  MEMB      2               0.0000000000
       166         2  SLPC      H3Y             6.8888067308       -5.5364243000       10.3544380073  MEMB      2               0.0000000000
       167         2  SLPC      C34             7.5461398894       -4.6498332162        8.4799054259  MEMB      2               0.0000000000
       168         2  SLPC      H4X             8.2768521991       -5.4649846364        8.2858914079  MEMB      2               0.0000000000
       169         2  SLPC      H4Y             8.0879464700       -3.8423722904        9.0287356336  MEMB      2               0.0000000000
       170         2  SLPC      C35             7.0773956610       -4.0626680005        7.1340267386  MEMB      2               0.0000000000
       171         2  SLPC      H5X             7.9557150782       -3.8981074230        6.4701669159  MEMB      2               0.0000000000
       172         2  SLPC      H5Y             6.6714421384       -3.0788139826        7.3844267946  MEMB      2               0.0000000000
       173         2  SLPC      C36             5.9253176267       -4.7316446564        6.3613326885  MEMB      2               0.0000000000
       174         2  SLPC      H6X             5.7276824654       -4.1178540516        5.4505645988  MEMB      2               0.0000000000
       175         2  SLPC      H6Y             4.9912193072       -4.7037522602        6.9649130910  MEMB      2               0.0000000000
       176         2  SLPC      C37             6.1945527255       -6.1686479898        5.9263058450  MEMB      2               0.0000000000
       177         2  SLPC      H7X             5.4207454618       -6.4796210438        5.1867041144  MEMB      2               0.0000000000
       178         2  SLPC      H7Y             6.0574306829       -6.8241896339        6.8089702746  MEMB      2               0.0000000000
       179         2  SLPC      C38             7.5950101905       -6.3690709294        5.3290116275  MEMB      2               0.0000000000
       180         2  SLPC      H8X             7.7598884673       -7.4642870329        5.2302229682  MEMB      2               0.0000000000
       181         2  SLPC      H8Y             8.3930231509       -6.0144911490        6.0114748689  MEMB      2               0.0000000000
       182         2  SLPC      C39             7.7470929605       -5.6966072019        3.9617648621  MEMB      2               0.0000000000
       183         2  SLPC      H9X             8.5128511390       -4.8903026692        3.9684382407  MEMB      2               0.0000000000
       184         2  SLPC      H9Y             6.7769905117       -5.2050493432        3.7066906291  MEMB      2               0.0000000000
       185         2  SLPC      C310            8.0675349387       -6.7286327193        2.8813939690  MEMB      2               0.0000000000
       186         2  SLPC      H10X            7.8020817595       -7.7329670053        3.2517595486  MEMB      2               0.0000000000
       187         2  SLPC      H10Y            9.1556298505       -6.7833074587        2.6699035399  MEMB      2               0.0000000000
       188         2  SLPC      C311            7.3099360308       -6.4082183522        1.6031495850  MEMB      2               0.0000000000
       189         2  SLPC      H11X            6.2540589753       -6.1390481628        1.8270692026  MEMB      2               0.0000000000
       190         2  SLPC      H11Y            7.2683151503       -7.2880420365        0.9373889068  MEMB      2               0.0000000000
       191         2  SLPC      C312            8.0493574986       -5.2775069144        0.9192386470  MEMB      2               0.0000000000
       192         2  SLPC      H12X            9.1435013651       -5.3828679921        1.0964341631  MEMB      2               0.0000000000
       193         2  SLPC      H12Y            7.7644922407       -4.3241530280        1.4140453763  MEMB      2               0.0000000000
       194         2  SLPC      C313            7.8935779938       -5.1975655618       -0.5924409608  MEMB      2               0.0000000000
       195         2  SLPC      H13X            8.8324465640       -5.5018536482       -1.1047056292  MEMB      2               0.0000000000
       196         2  SLPC      H13Y            7.7675847430       -4.1053702990       -0.7382032753  MEMB      2               0.0000000000
       197         2  SLPC      C314            6.6894137815       -5.8535752633       -1.2719310657  MEMB      2               0.0000000000
       198         2  SLPC      H14X            5.8543440177       -5.9830522146       -0.5620658961  MEMB      2               0.0000000000
       199         2  SLPC      H14Y            6.8845555288       -6.8801876608       -1.6574920942  MEMB      2               0.0000000000
       200         2  SLPC      C315            6.2495696496       -4.8851993613       -2.3700334470  MEMB      2               0.0000000000
       201         2  SLPC      H15X            7.0136936602       -4.8137957613       -3.1744131326  MEMB      2               0.0000000000
       202         2  SLPC      H15Y            6.1699034386       -3.8701016796       -1.9051258649  MEMB      2               0.0000000000
       203         2  SLPC      C316            4.8786979699       -5.1973556545       -2.9317656976  MEMB      2               0.0000000000
       204         2  SLPC      H16X            4.2225771104       -5.5043553699       -2.0812199780  MEMB      2               0.0000000000
       205         2  SLPC      H16Y            4.9414757290       -6.0488250021       -3.6454157325  MEMB      2               0.0000000000
       206         2  SLPC      C317            4.3005367209       -3.9408664164       -3.5827938462  MEMB      2               0.0000000000
       207         2  SLPC      H17X            4.8386911668       -3.7243756682       -4.5354376176  MEMB      2               0.0000000000
       208         2  SLPC      H17Y            4.4603237818       -3.0659441786       -2.9073507622  MEMB      2               0.0000000000
       209         2  SLPC      C318            2.8130631614       -4.0695758680       -3.8369346562  MEMB      2               0.0000000000
       210         2  SLPC      H18X            2.4062814848       -3.1180834516       -4.2241115183  MEMB      2               0.0000000000
       211         2  SLPC      H18Y            2.2747112480       -4.3279582405       -2.8990875989  MEMB      2               0.0000000000
       212         2  SLPC      H18Z            2.6295028843       -4.8600908617       -4.5876944738  MEMB      2               0.0000000000
       213         3  POPC      N              -3.1269664584       -5.7232913196       21.2391849462  MEMB      3               0.0000000000
       214         3  POPC      C12            -3.9008466262       -6.8731747309       20.6101564202  MEMB      3               0.0000000000
       215         3  POPC      H12A           -4.7387336647       -7.1245018275       21.2379848065  MEMB      3               0.0000000000
       216         3  POPC      H12B           -3.2524271096       -7.7340634129       20.5267955846  MEMB      3               0.0000000000
       217         3  POPC      C13            -1.7301305436       -5.6850882082       20.7059503087  MEMB      3               0.0000000000
       218         3  POPC      H13A           -1.2342736936       -4.8081810952       21.0936389539  MEMB      3               0.0000000000
       219         3  POPC      H13B           -1.1598139326       -6.5628060134       20.9643113349  MEMB      3               0.0000000000
       220         3  POPC      H13C           -1.8216720527       -5.6295615455       19.6187024651  MEMB      3               0.0000000000
       221         3  POPC      C14            -3.7367687406       -4.4315800588       20.7778470450  MEMB      3               0.0000000000
       222         3  POPC      H14A           -4.6725388078       -4.2355730783       21.2697338933  MEMB      3               0.0000000000
       223         3  POPC      H14B           -3.0693949528       -3.5922589032       20.9195663054  MEMB      3               0.0000000000
       224         3  POPC      H14C           -3.9283381275       -4.5150235543       19.7020057160  MEMB      3               0.0000000000
       225         3  POPC      C15            -3.1304157257       -5.7447538817       22.7306338175  MEMB      3               0.0000000000
       226         3  POPC      H15A           -2.4862197244       -6.5230311373       23.1312950765  MEMB      3               0.0000000000
       227         3  POPC      H15B           -4.1268692177       -5.8335142288       23.1468738960  MEMB      3               0.0000000000
       228         3  POPC      H15C           -2.7127772649       -4.8097927223       23.1156557618  MEMB      3               0.0000000000
       229         3  POPC      C11            -4.4711539875       -6.6511410133       19.1890291591  MEMB      3               0.0000000000
       230         3  POPC      H11A           -5.3718591653       -5.9986060050       19.2319487604  MEMB      3               0.0000000000
       231         3  POPC      H11B           -4.8045018166       -7.6351352122       18.7732077784  MEMB      3               0.0000000000
       232         3  POPC      P              -3.4971563175       -6.1758404958       16.8101448805  MEMB      3               0.0000000000
       233         3  POPC      O13            -3.2426714772       -4.8426109215       16.2243242200  MEMB      3               0.0000000000
       234         3  POPC      O14            -4.7052194391       -6.9226350853       16.3816630931  MEMB      3               0.0000000000
       235         3  POPC      O12            -3.4864257722       -6.0319399736       18.3828820703  MEMB      3               0.0000000000
       236         3  POPC      O11            -2.2024639144       -7.0800431364       16.6790415373  MEMB      3               0.0000000000
       237         3  POPC      C1             -1.0526428291       -6.8095600557       17.4773891615  MEMB      3               0.0000000000
       238         3  POPC      HA             -0.9699629140       -7.5777252603       18.2771571426  MEMB      3               0.0000000000
       239         3  POPC      HB             -1.0955447702       -5.8013437649       17.9570448408  MEMB      3               0.0000000000
       240         3  POPC      C2              0.2715321246       -6.7987033793       16.6648248537  MEMB      3               0.0000000000
       241         3  POPC      HS              0.9688998353       -6.1745827907       17.2540439068  MEMB      3               0.0000000000
       242         3  POPC      O21             0.0960333470       -6.2748612984       15.3220742180  MEMB      3               0.0000000000
       243         3  POPC      C21             0.0134170708       -4.9566944584       15.2834269011  MEMB      3               0.0000000000
       244         3  POPC      O22             0.2155986758       -4.2329703427       16.2486411634  MEMB      3               0.0000000000
       245         3  POPC      C22            -0.2062583908       -4.3729085157       13.8582655620  MEMB      3               0.0000000000
       246         3  POPC      H2R             0.7491119197       -3.8798257311       13.5808027230  MEMB      3               0.0000000000
       247         3  POPC      H2S            -0.9807041982       -3.5836470458       13.9605249665  MEMB      3               0.0000000000
       248         3  POPC      C3              0.9027790671       -8.2296486048       16.5921909880  MEMB      3               0.0000000000
       249         3  POPC      HX              1.2379909411       -8.4899275491       17.6203518176  MEMB      3               0.0000000000
       250         3  POPC      HY              1.8251181721       -8.2116005766       15.9607210811  MEMB      3               0.0000000000
       251         3  POPC      O31            -0.0359315067       -9.2412221471       16.1723128620  MEMB      3               0.0000000000
       252         3  POPC      C31            -0.2327985827       -9.2076661539       14.8562298424  MEMB      3               0.0000000000
       253         3  POPC      O32             0.4156718476       -8.5666881565       14.0556137524  MEMB      3               0.0000000000
       254         3  POPC      C32            -1.3871694279      -10.1063063023       14.4629499500  MEMB      3               0.0000000000
       255         3  POPC      H2X            -1.5616704398      -10.8397624696       15.2764534975  MEMB      3               0.0000000000
       256         3  POPC      H2Y            -1.1082774649      -10.6527206257       13.5414485192  MEMB      3               0.0000000000
       257         3  POPC      C23            -0.6180203789       -5.3588030482       12.7280629944  MEMB      3               0.0000000000
       258         3  POPC      H3R            -1.6991428442       -5.5896772004       12.8080445715  MEMB      3               0.0000000000
       259         3  POPC      H3S            -0.0740014141       -6.3156516680       12.9126181510  MEMB      3               0.0000000000
       260         3  POPC      C24            -0.2263306836       -4.9237286013       11.2919874709  MEMB      3               0.0000000000
       261         3  POPC      H4R             0.1200263506       -5.8470896023       10.7655948133  MEMB      3               0.0000000000
       262         3  POPC      H4S             0.6335944811       -4.2224841088       11.3346821961  MEMB      3               0.0000000000
       263         3  POPC      C25            -1.3141727533       -4.3496383510       10.3713498651  MEMB      3               0.0000000000
       264         3  POPC      H5R            -1.7455480805       -3.4171934961       10.7929240272  MEMB      3               0.0000000000
       265         3  POPC      H5S            -2.1261120689       -5.1030223797       10.2876335311  MEMB      3               0.0000000000
       266         3  POPC      C26            -0.7991678626       -4.1109869289        8.9324979623  MEMB      3               0.0000000000
       267         3  POPC      H6R            -1.6729565464       -4.0082716162        8.2501393517  MEMB      3               0.0000000000
       268         3  POPC      H6S            -0.2096973461       -4.9884404340        8.5873300544  MEMB      3               0.0000000000
       269         3  POPC      C27             0.0454611890       -2.8393271236        8.7941642408  MEMB      3               0.0000000000
       270         3  POPC      H7R             0.9465705347       -2.8908863870        9.4426136661  MEMB      3               0.0000000000
       271         3  POPC      H7S            -0.6061769664       -2.0142350044        9.1516615120  MEMB      3               0.0000000000
       272         3  POPC      C28             0.4483142042       -2.4769167991        7.3533959509  MEMB      3               0.0000000000
       273         3  POPC      H8R             0.9077645069       -1.4673074054        7.3479994867  MEMB      3               0.0000000000
       274         3  POPC      H8S            -0.4986887640       -2.3756060072        6.7814385974  MEMB      3               0.0000000000
       275         3  POPC      C29             1.4080123501       -3.4418639965        6.7092685725  MEMB      3               0.0000000000
       276         3  POPC      H91             2.3914431170       -3.5401798907        7.1967249963  MEMB      3               0.0000000000
       277         3  POPC      C210            1.1398820992       -4.1725489751        5.6155053086  MEMB      3               0.0000000000
       278         3  POPC      H101            1.9257345687       -4.8206975011        5.1986467867  MEMB      3               0.0000000000
       279         3  POPC      C211           -0.1627824339       -4.1490454021        4.8526898020  MEMB      3               0.0000000000
       280         3  POPC      H11R           -1.0186071386       -4.2567805249        5.5583169360  MEMB      3               0.0000000000
       281         3  POPC      H11S           -0.2334061602       -5.0171869148        4.1677986261  MEMB      3               0.0000000000
       282         3  POPC      C212           -0.3672037911       -2.8747218919        4.0150725547  MEMB      3               0.0000000000
       283         3  POPC      H12R           -0.5754385460       -2.0174843050        4.6963107287  MEMB      3               0.0000000000
       284         3  POPC      H12S           -1.2683548098       -3.0033887413        3.3770913938  MEMB      3               0.0000000000
       285         3  POPC      C213            0.8248506824       -2.4413610624        3.1494857773  MEMB      3               0.0000000000
       286         3  POPC      H13R            1.6373962900       -2.0587643427        3.8085956481  MEMB      3               0.0000000000
       287         3  POPC      H13S            0.4785818727       -1.5850421413        2.5259899019  MEMB      3               0.0000000000
       288         3  POPC      C214            1.4564051255       -3.4671936177        2.2052145531  MEMB      3               0.0000000000
       289         3  POPC      H14R            0.6782475223       -4.0048987240        1.6215722641  MEMB      3               0.0000000000
       290         3  POPC      H14S            2.0375033454       -4.2254647058        2.7754652435  MEMB      3               0.0000000000
       291         3  POPC      C215            2.3656460936       -2.6812622336        1.2504672705  MEMB      3               0.0000000000
       292         3  POPC      H15R            3.0134619598       -1.9956325212        1.8459153768  MEMB      3               0.0000000000
       293         3  POPC      H15S            1.7087813843       -2.0433450129        0.6196483907  MEMB      3               0.0000000000
       294         3  POPC      C216            3.2431335428       -3.5599962917        0.3670280007  MEMB      3               0.0000000000
       295         3  POPC      H16R            3.5426090129       -3.0115936002       -0.5557863734  MEMB      3               0.0000000000
       296         3  POPC      H16S            2.6702717934       -4.4554623412        0.0570836565  MEMB      3               0.0000000000
       297         3  POPC      C217            4.4947012180       -4.0038916324        1.1170793586  MEMB      3               0.0000000000
       298         3  POPC      H17R            4.9068436998       -4.8741028191        0.5929947988  MEMB      3               0.0000000000
       299         3  POPC      H17S            4.2204894655       -4.3641407757        2.1323217273  MEMB      3               0.0000000000
       300         3  POPC      C218            5.5672893043       -2.9248621022        1.1993700170  MEMB      3               0.0000000000
       301         3  POPC      H18R            6.2707489553       -2.9947881040        0.3411992677  MEMB      3               0.0000000000
       302         3  POPC      H18S            6.1497978468       -3.0236740460        2.1399843303  MEMB      3               0.0000000000
       303         3  POPC      H18T            5.0987083249       -1.9228971363        1.1614062199  MEMB      3               0.0000000000
       304         3  POPC      C33            -2.6402901364       -9.2443583518       14.2370176714  MEMB      3               0.0000000000
       305         3  POPC      H3X            -2.7352999476       -8.4903642218       15.0394624686  MEMB      3               0.0000000000
       306         3  POPC      H3Y            -3.5369281533       -9.8748198911       14.3430487123  MEMB      3               0.0000000000
       307         3  POPC      C34            -2.7026866019       -8.5055644815       12.8954329830  MEMB      3               0.0000000000
       308         3  POPC      H4X            -2.7399174259       -9.2516801494       12.0738724980  MEMB      3               0.0000000000
       309         3  POPC      H4Y            -1.7829813165       -7.8998161805       12.7476691802  MEMB      3               0.0000000000
       310         3  POPC      C35            -3.9324459620       -7.5787977213       12.8841451387  MEMB      3               0.0000000000
       311         3  POPC      H5X            -3.8699218719       -6.9021868030       13.7683535708  MEMB      3               0.0000000000
       312         3  POPC      H5Y            -4.8346366488       -8.2132835545       13.0240878594  MEMB      3               0.0000000000
       313         3  POPC      C36            -4.1126520189       -6.7196856687       11.6245690442  MEMB      3               0.0000000000
       314         3  POPC      H6X            -3.4719253515       -5.8182867470       11.6870019145  MEMB      3               0.0000000000
       315         3  POPC      H6Y            -5.1669833197       -6.3646614020       11.5971535202  MEMB      3               0.0000000000
       316         3  POPC      C37            -3.7872765006       -7.5056427938       10.3571675808  MEMB      3               0.0000000000
       317         3  POPC      H7X            -4.1885996499       -8.5291138812       10.5227139278  MEMB      3               0.0000000000
       318         3  POPC      H7Y            -2.6857659979       -7.5902604540       10.2180723974  MEMB      3               0.0000000000
       319         3  POPC      C38            -4.4446617448       -6.9911061397        9.0759150631  MEMB      3               0.0000000000
       320         3  POPC      H8X            -3.9873273963       -6.0410702485        8.7287101041  MEMB      3               0.0000000000
       321         3  POPC      H8Y            -5.5181865863       -6.7937556885        9.3032924024  MEMB      3               0.0000000000
       322         3  POPC      C39            -4.3706717755       -8.0845140662        8.0072050198  MEMB      3               0.0000000000
       323         3  POPC      H9X            -5.3494450634       -8.2264557826        7.5148443918  MEMB      3               0.0000000000
       324         3  POPC      H9Y            -4.1502560061       -9.0488322126        8.5094211590  MEMB      3               0.0000000000
       325         3  POPC      C310           -3.3330784404       -7.8824555972        6.9042931502  MEMB      3               0.0000000000
       326         3  POPC      H10X           -2.3389896290       -7.6362840022        7.3388621357  MEMB      3               0.0000000000
       327         3  POPC      H10Y           -3.6598238232       -7.0271602627        6.2725989453  MEMB      3               0.0000000000
       328         3  POPC      C311           -3.2562645128       -9.1857480116        6.0938204378  MEMB      3               0.0000000000
       329         3  POPC      H11X           -4.2952851259       -9.4917121082        5.8258764244  MEMB      3               0.0000000000
       330         3  POPC      H11Y           -2.8290048496       -9.9680175471        6.7608836380  MEMB      3               0.0000000000
       331         3  POPC      C312           -2.4353364854       -9.1402778473        4.8010709328  MEMB      3               0.0000000000
       332         3  POPC      H12X           -2.5721277614      -10.1017167774        4.2556425716  MEMB      3               0.0000000000
       333         3  POPC      H12Y           -1.3672381175       -9.0750701467        5.0685122070  MEMB      3               0.0000000000
       334         3  POPC      C313           -2.8450395765       -7.9773980974        3.8930166891  MEMB      3               0.0000000000
       335         3  POPC      H13X           -2.6013980157       -7.0082406471        4.3832744950  MEMB      3               0.0000000000
       336         3  POPC      H13Y           -3.9518959333       -8.0401003091        3.8173590542  MEMB      3               0.0000000000
       337         3  POPC      C314           -2.2045592647       -7.9854363097        2.4930629169  MEMB      3               0.0000000000
       338         3  POPC      H14X           -2.4266708836       -8.9483720168        1.9818173819  MEMB      3               0.0000000000
       339         3  POPC      H14Y           -1.1012565759       -7.9022318852        2.5889213120  MEMB      3               0.0000000000
       340         3  POPC      C315           -2.7087984575       -6.8251260369        1.6228890906  MEMB      3               0.0000000000
       341         3  POPC      H15X           -2.1018407689       -6.7368048418        0.6966634296  MEMB      3               0.0000000000
       342         3  POPC      H15Y           -2.5933506495       -5.8780688145        2.1995462987  MEMB      3               0.0000000000
       343         3  POPC      C316           -4.1685536045       -7.0072595019        1.2409885050  MEMB      3               0.0000000000
       344         3  POPC      H16X           -4.3038139102       -7.7465598117        0.4246478052  MEMB      3               0.0000000000
       345         3  POPC      H16Y           -4.6765033398       -6.0580166878        0.9792717800  MEMB      3               0.0000000000
       346         3  POPC      H16Z           -4.6865738026       -7.4048845811        2.1074559074  MEMB      3               0.0000000000
       347         4  SLPC      N               5.9849792154        1.3561866704       17.3615965444  MEMB      4               0.0000000000
       348         4  SLPC      C13             7.1808578078        0.9984305187       16.5446917341  MEMB      4               0.0000000000
       349         4  SLPC      H13A            7.6000056881        0.0373680124       16.7962580110  MEMB      4               0.0000000000
       350         4  SLPC      H13B            6.9282545592        0.9857670404       15.4933486273  MEMB      4               0.0000000000
       351         4  SLPC      H13C            7.9579235487        1.7631201074       16.6241565661  MEMB      4               0.0000000000
       352         4  SLPC      C14             6.3686512222        1.0863973051       18.7798609178  MEMB      4               0.0000000000
       353         4  SLPC      H14A            7.1587882116        1.8025541079       19.0381397615  MEMB      4               0.0000000000
       354         4  SLPC      H14B            5.5382218259        1.2627076899       19.4432659086  MEMB      4               0.0000000000
       355         4  SLPC      H14C            6.7724858907        0.0940124879       18.9085958590  MEMB      4               0.0000000000
       356         4  SLPC      C15             4.8682697897        0.4837575458       16.9162845174  MEMB      4               0.0000000000
       357         4  SLPC      H15A            3.9783508242        0.6320632175       17.5309113424  MEMB      4               0.0000000000
       358         4  SLPC      H15B            4.5989851334        0.6458121357       15.8712496094  MEMB      4               0.0000000000
       359         4  SLPC      H15C            5.1694967017       -0.5497465136       16.9858106776  MEMB      4               0.0000000000
       360         4  SLPC      C12             5.6341830446        2.8333750111       17.2202612650  MEMB      4               0.0000000000
       361         4  SLPC      H12A            4.5694723060        2.9542418884       17.3678691453  MEMB      4               0.0000000000
       362         4  SLPC      H12B            5.8845332002        3.1540263813       16.2163097814  MEMB      4               0.0000000000
       363         4  SLPC      C11             6.3315788878        3.8607450673       18.1572024445  MEMB      4               0.0000000000
       364         4  SLPC      H11A            5.9075791137        3.7273662697       19.1797553660  MEMB      4               0.0000000000
       365         4  SLPC      H11B            6.0571054343        4.8961396919       17.8357471480  MEMB      4               0.0000000000
       366         4  SLPC      P               8.7240282504        4.2305804290       17.0802365638  MEMB      4               0.0000000000
       367         4  SLPC      O13             8.5217560297        5.6864974500       16.9804594296  MEMB      4               0.0000000000
       368         4  SLPC      O14            10.0640947107        3.6540507220       17.3221894149  MEMB      4               0.0000000000
       369         4  SLPC      O12             7.7468977720        3.7104400244       18.2242289837  MEMB      4               0.0000000000
       370         4  SLPC      O11             8.0570310065        3.5190780831       15.8331994840  MEMB      4               0.0000000000
       371         4  SLPC      C1              7.3530512068        4.2437396056       14.8293320250  MEMB      4               0.0000000000
       372         4  SLPC      HA              6.6232486524        4.9422294403       15.2968949606  MEMB      4               0.0000000000
       373         4  SLPC      HB              8.0848843115        4.8370548472       14.2395820870  MEMB      4               0.0000000000
       374         4  SLPC      C2              6.5765986968        3.2847917551       13.8744056630  MEMB      4               0.0000000000
       375         4  SLPC      HS              6.1217552255        2.4910448822       14.5080506858  MEMB      4               0.0000000000
       376         4  SLPC      O21             7.5009023936        2.7765220688       12.8980390177  MEMB      4               0.0000000000
       377         4  SLPC      C21             7.7504545990        1.4787130127       12.9744563776  MEMB      4               0.0000000000
       378         4  SLPC      O22             7.2218104772        0.6910989474       13.7343724414  MEMB      4               0.0000000000
       379         4  SLPC      C22             8.6052799690        1.0538916403       11.8113392952  MEMB      4               0.0000000000
       380         4  SLPC      H2R             9.4919794672        1.7196128008       11.7426323230  MEMB      4               0.0000000000
       381         4  SLPC      H2S             8.9311014014        0.0071707245       11.9636588142  MEMB      4               0.0000000000
       382         4  SLPC      C3              5.3405592392        3.9328434514       13.1496751467  MEMB      4               0.0000000000
       383         4  SLPC      HX              4.8651439872        4.7012055901       13.7942673387  MEMB      4               0.0000000000
       384         4  SLPC      HY              4.6087252002        3.1078624266       13.0244789605  MEMB      4               0.0000000000
       385         4  SLPC      O31             5.5712362140        4.4091114336       11.8186632681  MEMB      4               0.0000000000
       386         4  SLPC      C31             6.3892361598        5.4344361095       11.7236801363  MEMB      4               0.0000000000
       387         4  SLPC      O32             6.7705471111        6.1369923321       12.6379523630  MEMB      4               0.0000000000
       388         4  SLPC      C32             6.9289849468        5.4867091257       10.3215579110  MEMB      4               0.0000000000
       389         4  SLPC      H2X             6.8511951889        6.5074275894        9.9109455950  MEMB      4               0.0000000000
       390         4  SLPC      H2Y             6.3667926836        4.7774800450        9.6773826180  MEMB      4               0.0000000000
       391         4  SLPC      C23             7.7454696108        1.1903378608       10.5540747280  MEMB      4               0.0000000000
       392         4  SLPC      H3R             8.3526133773        0.9639655171        9.6494399383  MEMB      4               0.0000000000
       393         4  SLPC      H3S             7.4201998366        2.2519161448       10.5245513516  MEMB      4               0.0000000000
       394         4  SLPC      C24             6.4496197177        0.3735177324       10.5237645047  MEMB      4               0.0000000000
       395         4  SLPC      H4R             5.7159524285        0.8491735603       11.2121850158  MEMB      4               0.0000000000
       396         4  SLPC      H4S             6.6266065426       -0.6653829506       10.8800984098  MEMB      4               0.0000000000
       397         4  SLPC      C25             5.8873707396        0.3513924068        9.0927987394  MEMB      4               0.0000000000
       398         4  SLPC      H5R             6.0380103039        1.3429784875        8.6141058870  MEMB      4               0.0000000000
       399         4  SLPC      H5S             4.7931325099        0.1530478799        9.1145674817  MEMB      4               0.0000000000
       400         4  SLPC      C26             6.5634465442       -0.7605314435        8.2807825905  MEMB      4               0.0000000000
       401         4  SLPC      H6R             5.9628536548       -1.6637507602        8.5055062999  MEMB      4               0.0000000000
       402         4  SLPC      H6S             7.5763126368       -0.9301702741        8.7146082686  MEMB      4               0.0000000000
       403         4  SLPC      C27             6.7695533916       -0.5530095567        6.7576049750  MEMB      4               0.0000000000
       404         4  SLPC      H7R             7.0548562955       -1.5074007813        6.2677356471  MEMB      4               0.0000000000
       405         4  SLPC      H7S             7.6593484850        0.1032107135        6.6378840613  MEMB      4               0.0000000000
       406         4  SLPC      C28             5.5576078317       -0.0378101592        5.9633054210  MEMB      4               0.0000000000
       407         4  SLPC      H8R             4.8703770888        0.4465570862        6.6837713028  MEMB      4               0.0000000000
       408         4  SLPC      H8S             4.9819567650       -0.8944381638        5.5522616633  MEMB      4               0.0000000000
       409         4  SLPC      C29             5.9480056622        0.9018038862        4.8490370048  MEMB      4               0.0000000000
       410         4  SLPC      H9R             6.4896569118        0.4749054406        3.9872689260  MEMB      4               0.0000000000
       411         4  SLPC      C210            5.7927464183        2.2296534026        4.9148928504  MEMB      4               0.0000000000
       412         4  SLPC      H10R            6.1723525599        2.8412585432        4.0853215309  MEMB      4               0.0000000000
       413         4  SLPC      C211            5.2204738247        3.0025506872        6.0833804698  MEMB      4               0.0000000000
       414         4  SLPC      H11R            6.0688884195        3.3529830349        6.7021979278  MEMB      4               0.0000000000
       415         4  SLPC      H11S            4.6299879468        2.3762933495        6.7801378843  MEMB      4               0.0000000000
       416         4  SLPC      C212            4.3723438876        4.1826011089        5.7063243002  MEMB      4               0.0000000000
       417         4  SLPC      H12R            3.3260417510        4.1234923221        5.9797720444  MEMB      4               0.0000000000
       418         4  SLPC      C213            4.7549428692        5.2566255315        5.0291827035  MEMB      4               0.0000000000
       419         4  SLPC      H13R            4.0028408035        5.9909688290        4.7078812252  MEMB      4               0.0000000000
       420         4  SLPC      C214            6.1434871160        5.4406262513        4.5252264209  MEMB      4               0.0000000000
       421         4  SLPC      H14R            6.9029168589        4.8151356854        5.0448516822  MEMB      4               0.0000000000
       422         4  SLPC      H14S            6.4481883721        6.4917631474        4.5969883623  MEMB      4               0.0000000000
       423         4  SLPC      C215            6.1166252566        5.1604996789        3.0467969451  MEMB      4               0.0000000000
       424         4  SLPC      H15R            5.7536929769        6.1156916437        2.6120925076  MEMB      4               0.0000000000
       425         4  SLPC      H15S            5.4069938784        4.3455241085        2.7693609038  MEMB      4               0.0000000000
       426         4  SLPC      C216            7.4693900137        4.8022001969        2.4723414661  MEMB      4               0.0000000000
       427         4  SLPC      H16R            7.7119544639        3.7523821045        2.7538302303  MEMB      4               0.0000000000
       428         4  SLPC      H16S            8.2630120415        5.4657374695        2.8795890417  MEMB      4               0.0000000000
       429         4  SLPC      C217            7.3970507169        4.9426935529        0.9634964377  MEMB      4               0.0000000000
       430         4  SLPC      H17R            6.5432196052        4.3392697428        0.5749657704  MEMB      4               0.0000000000
       431         4  SLPC      H17S            8.3228722580        4.5099905926        0.5509243762  MEMB      4               0.0000000000
       432         4  SLPC      C218            7.2640127961        6.3905980338        0.4918748058  MEMB      4               0.0000000000
       433         4  SLPC      H18R            6.4072186035        6.9280422327        0.9341831309  MEMB      4               0.0000000000
       434         4  SLPC      H18S            7.1078267566        6.3680320995       -0.5989698950  MEMB      4               0.0000000000
       435         4  SLPC      H18T            8.1797639982        6.9757043609        0.7121855275  MEMB      4               0.0000000000
       436         4  SLPC      C33             8.3962050856        5.1141896686       10.4869811869  MEMB      4               0.0000000000
       437         4  SLPC      H3X             8.4967312452        4.1837037351       11.0967048625  MEMB      4               0.0000000000
       438         4  SLPC      H3Y             8.9388294830        5.9332285782       11.0230966403  MEMB      4               0.0000000000
       439         4  SLPC      C34             9.0802986279        4.8289546617        9.1748176341  MEMB      4               0.0000000000
       440         4  SLPC      H4X            10.0796650948        4.4530128332        9.4515381960  MEMB      4               0.0000000000
       441         4  SLPC      H4Y             9.2090609966        5.7733276421        8.6108318941  MEMB      4               0.0000000000
       442         4  SLPC      C35             8.4057411424        3.7663055062        8.3136208734  MEMB      4               0.0000000000
       443         4  SLPC      H5X             7.6808654163        4.2548542437        7.6290605452  MEMB      4               0.0000000000
       444         4  SLPC      H5Y             7.7850591852        3.0747458612        8.8903910504  MEMB      4               0.0000000000
       445         4  SLPC      C36             9.4429134218        2.9341859500        7.5582138597  MEMB      4               0.0000000000
       446         4  SLPC      H6X             9.5888024513        1.9550127561        8.0697220040  MEMB      4               0.0000000000
       447         4  SLPC      H6Y            10.4275071563        3.4433537952        7.5397166677  MEMB      4               0.0000000000
       448         4  SLPC      C37             8.9838368143        2.7191286907        6.1272786955  MEMB      4               0.0000000000
       449         4  SLPC      H7X             8.8487981452        3.6506918648        5.5411479601  MEMB      4               0.0000000000
       450         4  SLPC      H7Y             7.9823153337        2.2539616554        6.2346855612  MEMB      4               0.0000000000
       451         4  SLPC      C38             9.8658091732        1.7641814183        5.3562854343  MEMB      4               0.0000000000
       452         4  SLPC      H8X             9.1605636191        1.3127195528        4.6201530184  MEMB      4               0.0000000000
       453         4  SLPC      H8Y            10.2339444332        0.9667320940        6.0412258352  MEMB      4               0.0000000000
       454         4  SLPC      C39            11.0286521685        2.3744474981        4.5645781770  MEMB      4               0.0000000000
       455         4  SLPC      H9X            11.7448095639        1.5441161766        4.3516484710  MEMB      4               0.0000000000
       456         4  SLPC      H9Y            11.5850097950        3.1316245754        5.1543580077  MEMB      4               0.0000000000
       457         4  SLPC      C310           10.5632675835        2.9380323545        3.2112144438  MEMB      4               0.0000000000
       458         4  SLPC      H10X           10.1797081801        3.9729771106        3.3436670558  MEMB      4               0.0000000000
       459         4  SLPC      H10Y            9.7218896088        2.3139196065        2.8326755538  MEMB      4               0.0000000000
       460         4  SLPC      C311           11.6750609570        2.9033794846        2.1586259213  MEMB      4               0.0000000000
       461         4  SLPC      H11X           12.1962813328        1.9214469555        2.2013616375  MEMB      4               0.0000000000
       462         4  SLPC      H11Y           12.4155354570        3.6887733140        2.4236944463  MEMB      4               0.0000000000
       463         4  SLPC      C312           11.2036164918        3.1579741876        0.7210946618  MEMB      4               0.0000000000
       464         4  SLPC      H12X           12.1067755844        3.4164180158        0.1309730144  MEMB      4               0.0000000000
       465         4  SLPC      H12Y           10.5148839912        4.0255699819        0.6891776903  MEMB      4               0.0000000000
       466         4  SLPC      C313           10.5796653495        1.9562780231        0.0075699651  MEMB      4               0.0000000000
       467         4  SLPC      H13X           10.8380732108        0.9988131502        0.5113387421  MEMB      4               0.0000000000
       468         4  SLPC      H13Y           10.9874329042        1.9169736294       -1.0307418752  MEMB      4               0.0000000000
       469         4  SLPC      C314            9.0837079419        2.0932082516       -0.1872924829  MEMB      4               0.0000000000
       470         4  SLPC      H14X            8.8899312811        3.0665490433       -0.6828944369  MEMB      4               0.0000000000
       471         4  SLPC      H14Y            8.5720710398        2.0772773112        0.7945516588  MEMB      4               0.0000000000
       472         4  SLPC      C315            8.5698848236        1.0194757185       -1.1279525429  MEMB      4               0.0000000000
       473         4  SLPC      H15X            8.9056306429        0.0254414899       -0.7595457089  MEMB      4               0.0000000000
       474         4  SLPC      H15Y            9.0367538948        1.1778804652       -2.1288903870  MEMB      4               0.0000000000
       475         4  SLPC      C316            7.0487132024        1.0264184394       -1.2696456594  MEMB      4               0.0000000000
       476         4  SLPC      H16X            6.7890428359        0.8576078707       -2.3417898471  MEMB      4               0.0000000000
       477         4  SLPC      H16Y            6.6389919887        2.0178128162       -0.9740448080  MEMB      4               0.0000000000
       478         4  SLPC      C317            6.4144484723       -0.0522719155       -0.4015759570  MEMB      4               0.0000000000
       479         4  SLPC      H17X            7.0353544126       -0.9736001299       -0.4681404680  MEMB      4               0.0000000000
       480         4  SLPC      H17Y            5.4175818207       -0.3229455938       -0.8131537199  MEMB      4               0.0000000000
       481         4  SLPC      C318            6.2757429080        0.3890351845        1.0589115618  MEMB      4               0.0000000000
       482         4  SLPC      H18X            6.6953135408        1.4036323069        1.2145957337  MEMB      4               0.0000000000
       483         4  SLPC      H18Y            6.8085538843       -0.3190251602        1.7190128601  MEMB      4               0.0000000000
       484         4  SLPC      H18Z            5.2144440604        0.4074746217        1.3786987621  MEMB      4               0.0000000000
       485         5  OSM       N              -8.7094599649       -1.5349396913       22.2030989200  MEMB      5               0.0000000000
       486         5  OSM       C15            -8.7544431146       -2.1876664523       23.5448198502  MEMB      5               0.0000000000
       487         5  OSM       H15A           -7.7616192893       -2.3913063478       23.9430073781  MEMB      5               0.0000000000
       488         5  OSM       H15B           -9.3202617081       -3.1087843215       23.5051025012  MEMB      5               0.0000000000
       489         5  OSM       H15C           -9.2500391289       -1.5433828436       24.2674107633  MEMB      5               0.0000000000
       490         5  OSM       C14            -8.2110534285       -2.4990979604       21.1734548958  MEMB      5               0.0000000000
       491         5  OSM       H14A           -7.2220827521       -2.8852900881       21.3749111965  MEMB      5               0.0000000000
       492         5  OSM       H14B           -8.1898076503       -2.0106257211       20.2028279774  MEMB      5               0.0000000000
       493         5  OSM       H14C           -8.9033276469       -3.3384204757       21.0645811470  MEMB      5               0.0000000000
       494         5  OSM       C13           -10.1114013156       -1.1582592510       21.8075880524  MEMB      5               0.0000000000
       495         5  OSM       H13A          -10.5656698608       -0.4676247662       22.5086218195  MEMB      5               0.0000000000
       496         5  OSM       H13B          -10.7376707336       -2.0426481787       21.7102446262  MEMB      5               0.0000000000
       497         5  OSM       H13C          -10.0920638757       -0.6395884744       20.8514498042  MEMB      5               0.0000000000
       498         5  OSM       C12            -7.8265119020       -0.2897460738       22.2318477697  MEMB      5               0.0000000000
       499         5  OSM       H12A           -6.8410494456       -0.5517302236       22.5997665258  MEMB      5               0.0000000000
       500         5  OSM       H12B           -8.2523210472        0.4226617554       22.9275882733  MEMB      5               0.0000000000
       501         5  OSM       C11            -7.6436101543        0.5204564483       20.9245891450  MEMB      5               0.0000000000
       502         5  OSM       H11A           -7.3105072705       -0.1400674720       20.0928220749  MEMB      5               0.0000000000
       503         5  OSM       H11B           -6.8263844831        1.2605913296       21.1196997524  MEMB      5               0.0000000000
       504         5  OSM       P              -8.8331868905        2.1834650996       19.3382928567  MEMB      5               0.0000000000
       505         5  OSM       O13           -10.1727487164        2.7885109372       19.1755175615  MEMB      5               0.0000000000
       506         5  OSM       O14            -7.7011275211        3.1092651148       19.4645282072  MEMB      5               0.0000000000
       507         5  OSM       O11            -8.4902750048        1.2105616208       18.1552247140  MEMB      5               0.0000000000
       508         5  OSM       O12            -8.8546667366        1.2001141160       20.5937545472  MEMB      5               0.0000000000
       509         5  OSM       C1S            -9.3248454942        0.1502056503       17.7316908359  MEMB      5               0.0000000000
       510         5  OSM       H1S           -10.3548979382        0.2113909267       18.1552639021  MEMB      5               0.0000000000
       511         5  OSM       H1T            -8.8850750907       -0.8186035527       18.0543098505  MEMB      5               0.0000000000
       512         5  OSM       NF            -10.3244341111       -0.8541248026       15.7519222813  MEMB      5               0.0000000000
       513         5  OSM       HNF            -9.9684303476       -1.7196827669       15.4132088408  MEMB      5               0.0000000000
       514         5  OSM       C2S            -9.3919139706        0.1666489748       16.1855226043  MEMB      5               0.0000000000
       515         5  OSM       H2S            -9.7628321998        1.1626930599       15.8520213860  MEMB      5               0.0000000000
       516         5  OSM       C3S            -7.9533033752       -0.0377741894       15.6190751469  MEMB      5               0.0000000000
       517         5  OSM       H3S            -7.5143827904       -0.9338086474       16.1136781441  MEMB      5               0.0000000000
       518         5  OSM       O3             -7.0628030191        1.0477562221       15.8493549123  MEMB      5               0.0000000000
       519         5  OSM       HO3            -7.3992183252        1.4451259665       16.6670834490  MEMB      5               0.0000000000
       520         5  OSM       C4S            -8.0007342656       -0.2612190360       14.1429165828  MEMB      5               0.0000000000
       521         5  OSM       H4S            -8.5071301608        0.5332485504       13.5794794179  MEMB      5               0.0000000000
       522         5  OSM       C5S            -7.4858000977       -1.3197329694       13.4869932785  MEMB      5               0.0000000000
       523         5  OSM       H5S            -6.9651553831       -2.1243960149       14.0385452874  MEMB      5               0.0000000000
       524         5  OSM       C6S            -7.5829598416       -1.4691366747       11.9958106260  MEMB      5               0.0000000000
       525         5  OSM       H6S            -6.6938032524       -1.9934775358       11.5828157461  MEMB      5               0.0000000000
       526         5  OSM       H6T            -7.6238229736       -0.4708573741       11.4983308728  MEMB      5               0.0000000000
       527         5  OSM       C7S            -8.8579568960       -2.2456824435       11.6286682488  MEMB      5               0.0000000000
       528         5  OSM       H7S            -9.7215585790       -1.9040380205       12.2421633127  MEMB      5               0.0000000000
       529         5  OSM       H7T            -8.7220114595       -3.3305956501       11.8347921065  MEMB      5               0.0000000000
       530         5  OSM       C8S            -9.2066191487       -2.0501346695       10.1542639467  MEMB      5               0.0000000000
       531         5  OSM       H8S            -8.5166659382       -2.7015150529        9.5779212537  MEMB      5               0.0000000000
       532         5  OSM       H8T            -8.9924082292       -1.0026855557        9.8462897624  MEMB      5               0.0000000000
       533         5  OSM       C9S           -10.6807359213       -2.3324876992        9.8264259060  MEMB      5               0.0000000000
       534         5  OSM       H9S           -11.3373167303       -1.6130772705       10.3562695418  MEMB      5               0.0000000000
       535         5  OSM       H9T           -10.9443532624       -3.3500279886       10.1934542733  MEMB      5               0.0000000000
       536         5  OSM       C10S          -10.9419893497       -2.2567608995        8.3163023327  MEMB      5               0.0000000000
       537         5  OSM       H10S          -10.7857076572       -1.2197784067        7.9446213611  MEMB      5               0.0000000000
       538         5  OSM       H10T          -11.9984797366       -2.5426271541        8.1159433055  MEMB      5               0.0000000000
       539         5  OSM       C11S           -9.9907448218       -3.2173053681        7.5998216632  MEMB      5               0.0000000000
       540         5  OSM       H11S           -9.8321338201       -4.0246628620        8.3423149212  MEMB      5               0.0000000000
       541         5  OSM       H11T           -8.9994884225       -2.7424551468        7.4224454454  MEMB      5               0.0000000000
       542         5  OSM       C12S          -10.5283351873       -3.8397483107        6.3100876601  MEMB      5               0.0000000000
       543         5  OSM       H12S          -11.6023215682       -4.0855723871        6.4584039252  MEMB      5               0.0000000000
       544         5  OSM       H12T          -10.0135054607       -4.7878335288        6.0551079524  MEMB      5               0.0000000000
       545         5  OSM       C13S          -10.2715390037       -2.9400037038        5.1103658908  MEMB      5               0.0000000000
       546         5  OSM       H13S           -9.3692336720       -3.2750897524        4.5505448679  MEMB      5               0.0000000000
       547         5  OSM       H13T          -10.0443361329       -1.9327721267        5.5166963381  MEMB      5               0.0000000000
       548         5  OSM       C14S          -11.4933866627       -2.8292946787        4.2086264785  MEMB      5               0.0000000000
       549         5  OSM       H14S          -12.3811014457       -2.8646776688        4.8685105187  MEMB      5               0.0000000000
       550         5  OSM       H14T          -11.5641446525       -3.6864291574        3.5041742413  MEMB      5               0.0000000000
       551         5  OSM       C15S          -11.5388140096       -1.4786781112        3.4953041428  MEMB      5               0.0000000000
       552         5  OSM       H15S          -12.2615729814       -1.5506081731        2.6576994929  MEMB      5               0.0000000000
       553         5  OSM       H15T          -10.5307429270       -1.2713680055        3.0691981745  MEMB      5               0.0000000000
       554         5  OSM       C16S          -11.9296032664       -0.3466447093        4.4632914382  MEMB      5               0.0000000000
       555         5  OSM       H16S          -11.0865017972        0.3758323225        4.5173474206  MEMB      5               0.0000000000
       556         5  OSM       H16T          -12.0577001542       -0.7639139707        5.4913390898  MEMB      5               0.0000000000
       557         5  OSM       C17S          -13.2031579372        0.4443610574        4.1237775444  MEMB      5               0.0000000000
       558         5  OSM       H17S          -13.1760685491        1.3100074210        4.8204306545  MEMB      5               0.0000000000
       559         5  OSM       H17T          -14.1143261422       -0.1366573338        4.3783184726  MEMB      5               0.0000000000
       560         5  OSM       C18S          -13.3145188839        0.9758277362        2.6931653952  MEMB      5               0.0000000000
       561         5  OSM       H18S          -13.3040575712        0.1683087083        1.9274788157  MEMB      5               0.0000000000
       562         5  OSM       H18T          -12.4516329375        1.6471276868        2.5016125759  MEMB      5               0.0000000000
       563         5  OSM       H18U          -14.2594536617        1.5549846921        2.5672565068  MEMB      5               0.0000000000
       564         5  OSM       C1F           -11.6337008285       -0.7185019966       15.9333582113  MEMB      5               0.0000000000
       565         5  OSM       OF            -12.0959891530        0.3263882261       16.3856880449  MEMB      5               0.0000000000
       566         5  OSM       C2F           -12.4773317818       -1.8885501980       15.5332465699  MEMB      5               0.0000000000
       567         5  OSM       H2F           -12.9685411492       -2.2945968626       16.4440193629  MEMB      5               0.0000000000
       568         5  OSM       H2G           -11.8265606819       -2.6834422069       15.1082883872  MEMB      5               0.0000000000
       569         5  OSM       C3F           -13.5504803663       -1.5129839553       14.4875846284  MEMB      5               0.0000000000
       570         5  OSM       H3F           -14.2077509796       -0.7113676082       14.8894001987  MEMB      5               0.0000000000
       571         5  OSM       H3G           -14.1864669229       -2.4126351991       14.3448923198  MEMB      5               0.0000000000
       572         5  OSM       C4F           -12.9988172321       -1.1174167563       13.1055635510  MEMB      5               0.0000000000
       573         5  OSM       H4F           -13.8107774451       -1.2797415847       12.3570783819  MEMB      5               0.0000000000
       574         5  OSM       H4G           -12.1547367740       -1.7838163511       12.8237707591  MEMB      5               0.0000000000
       575         5  OSM       C5F           -12.5802079136        0.3573119141       13.0076496710  MEMB      5               0.0000000000
       576         5  OSM       H5F           -11.7243935839        0.5833995780       13.6773988177  MEMB      5               0.0000000000
       577         5  OSM       H5G           -13.4352341103        0.9801658865       13.3548334654  MEMB      5               0.0000000000
       578         5  OSM       C6F           -12.2210359844        0.7804501440       11.5787356122  MEMB      5               0.0000000000
       579         5  OSM       H6F           -12.6924969264        1.7625864098       11.3639180446  MEMB      5               0.0000000000
       580         5  OSM       H6G           -12.6638495087        0.0479381168       10.8693174095  MEMB      5               0.0000000000
       581         5  OSM       C7F           -10.7040072701        0.8656373481       11.3440856116  MEMB      5               0.0000000000
       582         5  OSM       H7F           -10.4826054909        0.5769840081       10.2902843281  MEMB      5               0.0000000000
       583         5  OSM       H7G           -10.2055593430        0.1212681383       11.9987030547  MEMB      5               0.0000000000
       584         5  OSM       C8F           -10.0945484518        2.2485812006       11.6221051752  MEMB      5               0.0000000000
       585         5  OSM       H8F            -8.9860749053        2.1427224553       11.6099959632  MEMB      5               0.0000000000
       586         5  OSM       H8G           -10.3757937555        2.5852697879       12.6431736215  MEMB      5               0.0000000000
       587         5  OSM       C9F           -10.5773593098        3.2187347607       10.5759843914  MEMB      5               0.0000000000
       588         5  OSM       H9F           -11.6025889906        3.6000081075       10.7165650223  MEMB      5               0.0000000000
       589         5  OSM       C10F           -9.8726446837        3.6523307789        9.5217358794  MEMB      5               0.0000000000
       590         5  OSM       H10F          -10.3577989766        4.3535515749        8.8247573281  MEMB      5               0.0000000000
       591         5  OSM       C11F           -8.4589900754        3.2861342862        9.1415897215  MEMB      5               0.0000000000
       592         5  OSM       H11F           -8.0212503525        2.4957256060        9.7914326386  MEMB      5               0.0000000000
       593         5  OSM       H11G           -7.7892271437        4.1718937856        9.2247987798  MEMB      5               0.0000000000
       594         5  OSM       C12F           -8.3992197933        2.7980702714        7.6919025415  MEMB      5               0.0000000000
       595         5  OSM       H12F           -7.3218753311        2.6999680574        7.4268874836  MEMB      5               0.0000000000
       596         5  OSM       H12G           -8.8410847842        3.5453184608        6.9947196461  MEMB      5               0.0000000000
       597         5  OSM       C13F           -9.1017058503        1.4500771053        7.5247279809  MEMB      5               0.0000000000
       598         5  OSM       H13F          -10.1968350276        1.5626829577        7.6911859576  MEMB      5               0.0000000000
       599         5  OSM       H13G           -8.7227890762        0.7473252472        8.3035166454  MEMB      5               0.0000000000
       600         5  OSM       C14F           -8.8563382005        0.8307442187        6.1510293794  MEMB      5               0.0000000000
       601         5  OSM       H14F           -9.2841127936        1.4767327755        5.3532860906  MEMB      5               0.0000000000
       602         5  OSM       H14G           -9.3919705487       -0.1398693078        6.1308537085  MEMB      5               0.0000000000
       603         5  OSM       C15F           -7.3716695131        0.5769888205        5.8779119177  MEMB      5               0.0000000000
       604         5  OSM       H15F           -6.8963140847        0.1698787322        6.7987127661  MEMB      5               0.0000000000
       605         5  OSM       H15G           -6.8665442933        1.5379809515        5.6288436645  MEMB      5               0.0000000000
       606         5  OSM       C16F           -7.1572099858       -0.4163537908        4.7371162333  MEMB      5               0.0000000000
       607         5  OSM       H16F           -7.5927348215        0.0175975107        3.8108353980  MEMB      5               0.0000000000
       608         5  OSM       H16G           -7.7043879106       -1.3615461041        4.9424354615  MEMB      5               0.0000000000
       609         5  OSM       C17F           -5.6740800985       -0.7160109560        4.5092508007  MEMB      5               0.0000000000
       610         5  OSM       H17F           -5.3143530766       -1.4506509193        5.2616255199  MEMB      5               0.0000000000
       611         5  OSM       H17G           -5.0986170854        0.2284795826        4.6556442404  MEMB      5               0.0000000000
       612         5  OSM       C18F           -5.4078524458       -1.2159142940        3.0963277152  MEMB      5               0.0000000000
       613         5  OSM       H18F           -5.8366290652       -0.4569938814        2.4111063428  MEMB      5               0.0000000000
       614         5  OSM       H18G           -5.9021722652       -2.1907996393        2.8996620510  MEMB      5               0.0000000000
       615         5  OSM       H18H           -4.3208002929       -1.2991720063        2.8862235381  MEMB      5               0.0000000000
       616         6  CHL1      C3              2.2352482193        9.1974725110       17.4503044419  MEMB      6               0.0000000000
       617         6  CHL1      H3              2.3959699998       10.2965347678       17.3513463435  MEMB      6               0.0000000000
       618         6  CHL1      O3              1.9442779307        8.9140920990       18.8034554005  MEMB      6               0.0000000000
       619         6  CHL1      H3'             2.8030216804        8.8378507240       19.2645681542  MEMB      6               0.0000000000
       620         6  CHL1      C4              1.0305352194        8.7654517543       16.5954231340  MEMB      6               0.0000000000
       621         6  CHL1      H4A             0.7946368794        7.7079420619       16.8411812738  MEMB      6               0.0000000000
       622         6  CHL1      H4B             0.1534572499        9.3638844122       16.9362523778  MEMB      6               0.0000000000
       623         6  CHL1      C5              1.3132471601        8.9305181697       15.1126906411  MEMB      6               0.0000000000
       624         6  CHL1      C6              0.5640738419        9.7254034091       14.3319681115  MEMB      6               0.0000000000
       625         6  CHL1      H6             -0.3223634585       10.2269660483       14.7569911173  MEMB      6               0.0000000000
       626         6  CHL1      C7              0.8452570415        9.9525361894       12.8717820706  MEMB      6               0.0000000000
       627         6  CHL1      H7A            -0.1000363710        9.9398900050       12.2851598020  MEMB      6               0.0000000000
       628         6  CHL1      H7B             1.3068792973       10.9565552672       12.7479085201  MEMB      6               0.0000000000
       629         6  CHL1      C8              1.8041514557        8.9031997482       12.2447930807  MEMB      6               0.0000000000
       630         6  CHL1      H8              1.2170440806        7.9759195919       12.0612030352  MEMB      6               0.0000000000
       631         6  CHL1      C14             2.4047400318        9.4261069436       10.9432272888  MEMB      6               0.0000000000
       632         6  CHL1      H14             3.1024914731       10.2536891401       11.2400946665  MEMB      6               0.0000000000
       633         6  CHL1      C15             1.4769421097       10.0802453205        9.9236891241  MEMB      6               0.0000000000
       634         6  CHL1      H15A            0.5740514149        9.4460488244        9.7846656689  MEMB      6               0.0000000000
       635         6  CHL1      H15B            1.1678379405       11.0943358470       10.2376833984  MEMB      6               0.0000000000
       636         6  CHL1      C16             2.3173165082       10.1072284320        8.6366448234  MEMB      6               0.0000000000
       637         6  CHL1      H16A            1.6515977378        9.7034311617        7.8514948051  MEMB      6               0.0000000000
       638         6  CHL1      H16B            2.6232211663       11.1354967551        8.3613549540  MEMB      6               0.0000000000
       639         6  CHL1      C17             3.5956977061        9.2416492368        8.8889645326  MEMB      6               0.0000000000
       640         6  CHL1      H17             4.3656026420        9.9628268152        9.2641452642  MEMB      6               0.0000000000
       641         6  CHL1      C13             3.2544755514        8.4261124327       10.1603482534  MEMB      6               0.0000000000
       642         6  CHL1      C18             2.4205870531        7.2010576200        9.7492083289  MEMB      6               0.0000000000
       643         6  CHL1      H18A            2.1172807852        6.5957504439       10.6262909141  MEMB      6               0.0000000000
       644         6  CHL1      H18B            1.5064234278        7.4901755760        9.1931434764  MEMB      6               0.0000000000
       645         6  CHL1      H18C            3.0489190573        6.5649241164        9.0961066231  MEMB      6               0.0000000000
       646         6  CHL1      C12             4.4215320547        8.0503270563       11.0786693614  MEMB      6               0.0000000000
       647         6  CHL1      H12A            5.0118472075        7.2766091004       10.5706591264  MEMB      6               0.0000000000
       648         6  CHL1      H12B            5.0594317219        8.9468716035       11.2338175716  MEMB      6               0.0000000000
       649         6  CHL1      C11             3.9518653846        7.5690973001       12.4693149554  MEMB      6               0.0000000000
       650         6  CHL1      H11A            3.4733016192        6.5759962400       12.3407533394  MEMB      6               0.0000000000
       651         6  CHL1      H11B            4.8390511024        7.4417971898       13.1252602893  MEMB      6               0.0000000000
       652         6  CHL1      C9              2.9777398474        8.5679170986       13.1585010230  MEMB      6               0.0000000000
       653         6  CHL1      H9              3.5584608659        9.5212038834       13.2425851138  MEMB      6               0.0000000000
       654         6  CHL1      C10             2.5854509435        8.2111632685       14.6148762724  MEMB      6               0.0000000000
       655         6  CHL1      C19             2.3616686581        6.6773932285       14.7127774159  MEMB      6               0.0000000000
       656         6  CHL1      H19A            3.3092939250        6.1363610040       14.5214280389  MEMB      6               0.0000000000
       657         6  CHL1      H19B            2.0327342509        6.3748294860       15.7263311298  MEMB      6               0.0000000000
       658         6  CHL1      H19C            1.5953152596        6.3472732764       13.9796579236  MEMB      6               0.0000000000
       659         6  CHL1      C1              3.7645598639        8.6582044460       15.5256469034  MEMB      6               0.0000000000
       660         6  CHL1      H1A             4.6874426055        8.1222073478       15.2239505430  MEMB      6               0.0000000000
       661         6  CHL1      H1B             3.9538840998        9.7422773718       15.3504037716  MEMB      6               0.0000000000
       662         6  CHL1      C2              3.5143190191        8.4661096600       17.0276289853  MEMB      6               0.0000000000
       663         6  CHL1      H2A             4.3851351615        8.8658503724       17.5908299864  MEMB      6               0.0000000000
       664         6  CHL1      H2B             3.4318596035        7.3816243382       17.2542309627  MEMB      6               0.0000000000
       665         6  CHL1      C20             4.2307477114        8.6594805075        7.5827737885  MEMB      6               0.0000000000
       666         6  CHL1      H20             4.6535916694        9.5777358106        7.0982350874  MEMB      6               0.0000000000
       667         6  CHL1      C21             3.1971989001        8.1301732107        6.5653620081  MEMB      6               0.0000000000
       668         6  CHL1      H21A            2.6088942758        7.2908575068        6.9868064962  MEMB      6               0.0000000000
       669         6  CHL1      H21B            3.7334799569        7.7740828333        5.6643455520  MEMB      6               0.0000000000
       670         6  CHL1      H21C            2.5109667881        8.9264958409        6.2186919915  MEMB      6               0.0000000000
       671         6  CHL1      C22             5.4439458646        7.6788056126        7.6403857214  MEMB      6               0.0000000000
       672         6  CHL1      H22A            5.8518219423        7.6795050812        8.6574780359  MEMB      6               0.0000000000
       673         6  CHL1      H22B            5.0922021071        6.6480397998        7.4176807300  MEMB      6               0.0000000000
       674         6  CHL1      C23             6.5667410162        8.0897936623        6.6331128643  MEMB      6               0.0000000000
       675         6  CHL1      H23A            6.1556710518        8.0322934784        5.6173755195  MEMB      6               0.0000000000
       676         6  CHL1      H23B            6.6770439821        9.1692446219        6.8089321023  MEMB      6               0.0000000000
       677         6  CHL1      C24             7.9738869196        7.4174584911        6.7850219511  MEMB      6               0.0000000000
       678         6  CHL1      H24A            8.5922893148        8.0151578370        7.4779676735  MEMB      6               0.0000000000
       679         6  CHL1      H24B            7.7613936753        6.4470128795        7.2835979712  MEMB      6               0.0000000000
       680         6  CHL1      C25             8.9407428348        7.0646803982        5.5868725849  MEMB      6               0.0000000000
       681         6  CHL1      H25             8.3702155990        6.5416650557        4.7984029331  MEMB      6               0.0000000000
       682         6  CHL1      C26             9.8104610453        8.1223557772        4.8905846628  MEMB      6               0.0000000000
       683         6  CHL1      H26A           10.8425127235        8.1014715428        5.2917670931  MEMB      6               0.0000000000
       684         6  CHL1      H26B            9.8847509771        7.8666331761        3.8081228805  MEMB      6               0.0000000000
       685         6  CHL1      H26C            9.4686518044        9.1536395014        4.9920908348  MEMB      6               0.0000000000
       686         6  CHL1      C27             9.9896608716        6.0900775448        6.1117165275  MEMB      6               0.0000000000
       687         6  CHL1      H27A           10.6932339194        5.7538218297        5.3236913550  MEMB      6               0.0000000000
       688         6  CHL1      H27B           10.5593891030        6.5712848594        6.9360920973  MEMB      6               0.0000000000
       689         6  CHL1      H27C            9.4853192375        5.2184271715        6.5328064173  MEMB      6               0.0000000000
       690         7  OSM       N              -8.1554112066        8.2354869496       21.7498698921  MEMB      7               0.0000000000
       691         7  OSM       C15            -8.6724995977        9.2688026266       20.7915276714  MEMB      7               0.0000000000
       692         7  OSM       H15A           -9.1061918160       10.1163219580       21.3126947536  MEMB      7               0.0000000000
       693         7  OSM       H15B           -9.4061016719        8.8535818524       20.1172078792  MEMB      7               0.0000000000
       694         7  OSM       H15C           -7.8290279282        9.6331288640       20.2029881451  MEMB      7               0.0000000000
       695         7  OSM       C14            -7.2008619742        8.9181435889       22.6947641314  MEMB      7               0.0000000000
       696         7  OSM       H14A           -6.3798589842        9.3790455221       22.1392384095  MEMB      7               0.0000000000
       697         7  OSM       H14B           -6.7173418124        8.2005115213       23.3484160080  MEMB      7               0.0000000000
       698         7  OSM       H14C           -7.6981334899        9.7065381456       23.2474112142  MEMB      7               0.0000000000
       699         7  OSM       C13            -9.2845132492        7.6698799546       22.5440196947  MEMB      7               0.0000000000
       700         7  OSM       H13A          -10.0352148657        7.2264210833       21.9053668668  MEMB      7               0.0000000000
       701         7  OSM       H13B           -9.7345368559        8.4277373879       23.1770359283  MEMB      7               0.0000000000
       702         7  OSM       H13C           -8.9435900442        6.8546547312       23.1824560904  MEMB      7               0.0000000000
       703         7  OSM       C12            -7.4069477813        7.1212450718       21.0007766101  MEMB      7               0.0000000000
       704         7  OSM       H12A           -8.0890668916        6.3460630863       20.6756450459  MEMB      7               0.0000000000
       705         7  OSM       H12B           -6.7097798958        6.6390897317       21.7011891895  MEMB      7               0.0000000000
       706         7  OSM       C11            -6.5372889969        7.5090910413       19.7691915434  MEMB      7               0.0000000000
       707         7  OSM       H11A           -7.1652268454        8.0056236848       18.9994187169  MEMB      7               0.0000000000
       708         7  OSM       H11B           -6.1498413079        6.5766614722       19.2904152159  MEMB      7               0.0000000000
       709         7  OSM       P              -4.2494881889        7.8411158296       20.9879299285  MEMB      7               0.0000000000
       710         7  OSM       O13            -3.4404729435        8.9738213716       21.4675542092  MEMB      7               0.0000000000
       711         7  OSM       O14            -4.7769996614        6.8910641104       21.9888072225  MEMB      7               0.0000000000
       712         7  OSM       O11            -3.4089917233        7.0262334299       19.9121448375  MEMB      7               0.0000000000
       713         7  OSM       O12            -5.4740536972        8.3889465695       20.1221889108  MEMB      7               0.0000000000
       714         7  OSM       C1S            -2.6609649933        7.8389940211       18.9878373097  MEMB      7               0.0000000000
       715         7  OSM       H1S            -1.6236276390        7.9983074414       19.3579398393  MEMB      7               0.0000000000
       716         7  OSM       H1T            -3.1196936259        8.8493741719       18.8240138241  MEMB      7               0.0000000000
       717         7  OSM       NF             -3.9956175866        7.1877606937       17.0953618133  MEMB      7               0.0000000000
       718         7  OSM       HNF            -4.6366972981        6.7022737532       17.6825320152  MEMB      7               0.0000000000
       719         7  OSM       C2S            -2.6273449468        7.2618220160       17.5537854491  MEMB      7               0.0000000000
       720         7  OSM       H2S            -2.0093068885        7.9933023056       16.9743896015  MEMB      7               0.0000000000
       721         7  OSM       C3S            -1.9283979836        5.9039934275       17.4186396045  MEMB      7               0.0000000000
       722         7  OSM       H3S            -2.5692943324        5.0560769823       17.7391895009  MEMB      7               0.0000000000
       723         7  OSM       O3             -0.7527119585        5.8618905759       18.2247663768  MEMB      7               0.0000000000
       724         7  OSM       HO3            -0.6890473077        6.7191927550       18.6607129302  MEMB      7               0.0000000000
       725         7  OSM       C4S            -1.5728444966        5.7560711916       15.9478525274  MEMB      7               0.0000000000
       726         7  OSM       H4S            -0.5976263225        6.1942223369       15.6918827290  MEMB      7               0.0000000000
       727         7  OSM       C5S            -2.2894933096        5.1557183563       14.9686008272  MEMB      7               0.0000000000
       728         7  OSM       H5S            -3.2370300349        4.6475325468       15.2171117123  MEMB      7               0.0000000000
       729         7  OSM       C6S            -1.8647474373        5.0579583527       13.5182277408  MEMB      7               0.0000000000
       730         7  OSM       H6S            -1.6441125484        4.0003332470       13.2607369779  MEMB      7               0.0000000000
       731         7  OSM       H6T            -0.9288305125        5.6328030723       13.3252476163  MEMB      7               0.0000000000
       732         7  OSM       C7S            -2.9512253069        5.5440372640       12.5258944523  MEMB      7               0.0000000000
       733         7  OSM       H7S            -3.0638850795        6.6478729458       12.6188991379  MEMB      7               0.0000000000
       734         7  OSM       H7T            -3.9278646482        5.0779547483       12.7901433820  MEMB      7               0.0000000000
       735         7  OSM       C8S            -2.6173581644        5.1726629444       11.0652880756  MEMB      7               0.0000000000
       736         7  OSM       H8S            -2.5341571603        4.0638779012       10.9980422085  MEMB      7               0.0000000000
       737         7  OSM       H8T            -1.6201638274        5.6010191887       10.8161918832  MEMB      7               0.0000000000
       738         7  OSM       C9S            -3.6207952021        5.6421595300        9.9884959916  MEMB      7               0.0000000000
       739         7  OSM       H9S            -3.6835290743        6.7530479738       10.0084051918  MEMB      7               0.0000000000
       740         7  OSM       H9T            -4.6384845273        5.2516723662       10.2060710048  MEMB      7               0.0000000000
       741         7  OSM       C10S           -3.1833363817        5.1776865652        8.5827704701  MEMB      7               0.0000000000
       742         7  OSM       H10S           -3.4945512343        4.1234805803        8.4145305706  MEMB      7               0.0000000000
       743         7  OSM       H10T           -2.0697717239        5.1960038280        8.5652721244  MEMB      7               0.0000000000
       744         7  OSM       C11S           -3.6688056628        6.0574516213        7.4176966534  MEMB      7               0.0000000000
       745         7  OSM       H11S           -3.7035207986        7.1198970180        7.7488427427  MEMB      7               0.0000000000
       746         7  OSM       H11T           -4.6988305763        5.7645667033        7.1158778171  MEMB      7               0.0000000000
       747         7  OSM       C12S           -2.7405523989        5.9869320578        6.1946135675  MEMB      7               0.0000000000
       748         7  OSM       H12S           -2.9247614043        5.0376147351        5.6425234593  MEMB      7               0.0000000000
       749         7  OSM       H12T           -1.6768621557        5.9834100427        6.5204018483  MEMB      7               0.0000000000
       750         7  OSM       C13S           -2.9382584003        7.1774360932        5.2554682140  MEMB      7               0.0000000000
       751         7  OSM       H13S           -2.4864120348        8.0978065026        5.6860686121  MEMB      7               0.0000000000
       752         7  OSM       H13T           -4.0311029799        7.3635248480        5.1307056039  MEMB      7               0.0000000000
       753         7  OSM       C14S           -2.3583670174        6.9414185766        3.8653089340  MEMB      7               0.0000000000
       754         7  OSM       H14S           -2.6843392371        7.8270969084        3.2717258753  MEMB      7               0.0000000000
       755         7  OSM       H14T           -2.8195585478        6.0314121677        3.4161063821  MEMB      7               0.0000000000
       756         7  OSM       C15S           -0.8247097767        6.8334763587        3.7737689543  MEMB      7               0.0000000000
       757         7  OSM       H15S           -0.4290238424        6.2718595109        4.6451848815  MEMB      7               0.0000000000
       758         7  OSM       H15T           -0.4017887179        7.8574990449        3.8199537079  MEMB      7               0.0000000000
       759         7  OSM       C16S           -0.3485961277        6.1582050596        2.4707982343  MEMB      7               0.0000000000
       760         7  OSM       H16S           -0.6141964134        5.0768553097        2.5446287321  MEMB      7               0.0000000000
       761         7  OSM       H16T            0.7570539841        6.2071793451        2.3928529965  MEMB      7               0.0000000000
       762         7  OSM       C17S           -1.0356211625        6.7525023077        1.2247855650  MEMB      7               0.0000000000
       763         7  OSM       H17S           -1.8704104674        7.3767746601        1.5624614839  MEMB      7               0.0000000000
       764         7  OSM       H17T           -1.5129477082        5.9495046114        0.6321369291  MEMB      7               0.0000000000
       765         7  OSM       C18S           -0.2375143584        7.7041434961        0.3374321753  MEMB      7               0.0000000000
       766         7  OSM       H18S            0.6367382014        8.0882999713        0.8923611178  MEMB      7               0.0000000000
       767         7  OSM       H18T           -0.8345610393        8.6031117755        0.0900552279  MEMB      7               0.0000000000
       768         7  OSM       H18U            0.0867214548        7.2181900757       -0.6065430047  MEMB      7               0.0000000000
       769         7  OSM       C1F            -4.4083883834        8.0536383876       16.1905193369  MEMB      7               0.0000000000
       770         7  OSM       OF             -3.6625743765        8.9445848676       15.8111998426  MEMB      7               0.0000000000
       771         7  OSM       C2F            -5.7879708386        7.8759953297       15.6704417881  MEMB      7               0.0000000000
       772         7  OSM       H2F            -6.5090362081        8.2683248343       16.4179561932  MEMB      7               0.0000000000
       773         7  OSM       H2G            -5.9739774557        6.7898740692       15.5110653277  MEMB      7               0.0000000000
       774         7  OSM       C3F            -5.9394927858        8.6295620286       14.3415165126  MEMB      7               0.0000000000
       775         7  OSM       H3F            -4.9748514397        8.6873367932       13.7851492847  MEMB      7               0.0000000000
       776         7  OSM       H3G            -6.2478467974        9.6743112189       14.5687784557  MEMB      7               0.0000000000
       777         7  OSM       C4F            -6.9566520033        7.9919844883       13.4017113062  MEMB      7               0.0000000000
       778         7  OSM       H4F            -7.3462287739        8.8053848348       12.7451608113  MEMB      7               0.0000000000
       779         7  OSM       H4G            -7.8127655499        7.5748877421       13.9722405087  MEMB      7               0.0000000000
       780         7  OSM       C5F            -6.3359477630        6.9212429911       12.4921340079  MEMB      7               0.0000000000
       781         7  OSM       H5F            -6.2949031238        5.9406215077       13.0150959847  MEMB      7               0.0000000000
       782         7  OSM       H5G            -5.2899535299        7.2082901551       12.2347718667  MEMB      7               0.0000000000
       783         7  OSM       C6F            -7.0968065447        6.8021903835       11.1732178911  MEMB      7               0.0000000000
       784         7  OSM       H6F            -6.7434649250        5.9173134664       10.5981021362  MEMB      7               0.0000000000
       785         7  OSM       H6G            -6.8653298231        7.7040824312       10.5613858713  MEMB      7               0.0000000000
       786         7  OSM       C7F            -8.6139658727        6.7168758117       11.3508070635  MEMB      7               0.0000000000
       787         7  OSM       H7F            -9.0198326134        7.5296036227       11.9897609251  MEMB      7               0.0000000000
       788         7  OSM       H7G            -8.8649848880        5.7473533591       11.8419625952  MEMB      7               0.0000000000
       789         7  OSM       C8F            -9.3208698287        6.7801900634        9.9980822419  MEMB      7               0.0000000000
       790         7  OSM       H8F           -10.3871171765        6.5333967573       10.1885127245  MEMB      7               0.0000000000
       791         7  OSM       H8G            -8.9028729066        5.9527282590        9.4083690196  MEMB      7               0.0000000000
       792         7  OSM       C9F            -9.1624476101        8.0664092325        9.2279443009  MEMB      7               0.0000000000
       793         7  OSM       H9F            -9.3378894889        8.9909052359        9.8002479587  MEMB      7               0.0000000000
       794         7  OSM       C10F           -8.8678009209        8.1549566105        7.9191714985  MEMB      7               0.0000000000
       795         7  OSM       H10F           -8.8286024208        9.1538979312        7.4580965513  MEMB      7               0.0000000000
       796         7  OSM       C11F           -8.6341044282        7.0080557510        6.9579881288  MEMB      7               0.0000000000
       797         7  OSM       H11F           -9.4205771367        6.9862525558        6.1722168474  MEMB      7               0.0000000000
       798         7  OSM       H11G           -8.6798083500        6.0072895426        7.4395127235  MEMB      7               0.0000000000
       799         7  OSM       C12F           -7.2554204964        7.1429968433        6.2933782161  MEMB      7               0.0000000000
       800         7  OSM       H12F           -7.1021382450        6.2753813070        5.6128415047  MEMB      7               0.0000000000
       801         7  OSM       H12G           -6.4692122502        7.0884056020        7.0816674876  MEMB      7               0.0000000000
       802         7  OSM       C13F           -7.0605299325        8.4550026756        5.5132030846  MEMB      7               0.0000000000
       803         7  OSM       H13F           -6.1138817547        8.3907489894        4.9316090936  MEMB      7               0.0000000000
       804         7  OSM       H13G           -6.9315300630        9.2838460782        6.2442062316  MEMB      7               0.0000000000
       805         7  OSM       C14F           -8.2102200986        8.8269188078        4.5632091006  MEMB      7               0.0000000000
       806         7  OSM       H14F           -8.0289189264        9.8646217490        4.2029310803  MEMB      7               0.0000000000
       807         7  OSM       H14G           -9.1970907889        8.8367777858        5.0740920950  MEMB      7               0.0000000000
       808         7  OSM       C15F           -8.2836043831        7.9030972495        3.3515508563  MEMB      7               0.0000000000
       809         7  OSM       H15F           -8.8855050039        6.9951102134        3.5842026089  MEMB      7               0.0000000000
       810         7  OSM       H15G           -7.2581331136        7.5553496579        3.1073750764  MEMB      7               0.0000000000
       811         7  OSM       C16F           -8.8425831910        8.6025500325        2.1126593635  MEMB      7               0.0000000000
       812         7  OSM       H16F           -8.3146523991        9.5660524365        1.9340921219  MEMB      7               0.0000000000
       813         7  OSM       H16G           -9.9128874296        8.8462954329        2.2863459093  MEMB      7               0.0000000000
       814         7  OSM       C17F           -8.6768736568        7.6867700406        0.8997929514  MEMB      7               0.0000000000
       815         7  OSM       H17F           -8.9180478970        6.6421756857        1.2034249876  MEMB      7               0.0000000000
       816         7  OSM       H17G           -7.6087497885        7.7085777940        0.6015868147  MEMB      7               0.0000000000
       817         7  OSM       C18F           -9.5261594547        8.0682308420       -0.3002543273  MEMB      7               0.0000000000
       818         7  OSM       H18F           -9.0088302683        8.8825030548       -0.8439960174  MEMB      7               0.0000000000
       819         7  OSM       H18G          -10.5297105620        8.4192588232        0.0233587036  MEMB      7               0.0000000000
       820         7  OSM       H18H           -9.6506230270        7.2076398616       -0.9907635053  MEMB      7               0.0000000000
       821         8  CHL1      C3              1.1357532918      -13.4319088201       17.5455848185  MEMB      8               0.0000000000
       822         8  CHL1      H3              2.1863706531      -13.5339867218       17.9112801013  MEMB      8               0.0000000000
       823         8  CHL1      O3              0.3586009710      -12.7848015964       18.5331630508  MEMB      8               0.0000000000
       824         8  CHL1      H3'             0.4294042032      -13.3544809853       19.3237213805  MEMB      8               0.0000000000
       825         8  CHL1      C4              1.1059533005      -12.5362911065       16.3044119571  MEMB      8               0.0000000000
       826         8  CHL1      H4A             0.0497408089      -12.2874580503       16.0689936347  MEMB      8               0.0000000000
       827         8  CHL1      H4B             1.5881759367      -11.5657229127       16.5697432857  MEMB      8               0.0000000000
       828         8  CHL1      C5              1.7631090590      -13.2066651690       15.1235969718  MEMB      8               0.0000000000
       829         8  CHL1      C6              2.7603005466      -12.6194587520       14.4565050834  MEMB      8               0.0000000000
       830         8  CHL1      H6              3.0950180257      -11.6087974037       14.7410457752  MEMB      8               0.0000000000
       831         8  CHL1      C7              3.3665713953      -13.2206657552       13.2293031435  MEMB      8               0.0000000000
       832         8  CHL1      H7A             3.4970810093      -12.4414342587       12.4590306052  MEMB      8               0.0000000000
       833         8  CHL1      H7B             4.3733557031      -13.6228634009       13.4729737898  MEMB      8               0.0000000000
       834         8  CHL1      C8              2.5035463932      -14.3511712193       12.6097899453  MEMB      8               0.0000000000
       835         8  CHL1      H8              1.6264733897      -13.8825116115       12.1113919973  MEMB      8               0.0000000000
       836         8  CHL1      C14             3.3249397799      -15.1121583345       11.6009385648  MEMB      8               0.0000000000
       837         8  CHL1      H14             4.1553132938      -15.5911867145       12.1860796733  MEMB      8               0.0000000000
       838         8  CHL1      C15             4.0214925090      -14.2791010990       10.5351391842  MEMB      8               0.0000000000
       839         8  CHL1      H15A            3.2694599297      -13.6869827534        9.9713661263  MEMB      8               0.0000000000
       840         8  CHL1      H15B            4.7969242078      -13.5946194098       10.9290068437  MEMB      8               0.0000000000
       841         8  CHL1      C16             4.6052767224      -15.3792535039        9.6654628136  MEMB      8               0.0000000000
       842         8  CHL1      H16A            4.6364333189      -15.0102665312        8.6238957961  MEMB      8               0.0000000000
       843         8  CHL1      H16B            5.6288569911      -15.6145941800       10.0339901438  MEMB      8               0.0000000000
       844         8  CHL1      C17             3.7447443919      -16.6660814299        9.8732091368  MEMB      8               0.0000000000
       845         8  CHL1      H17             4.3916649446      -17.3857235927       10.4315777495  MEMB      8               0.0000000000
       846         8  CHL1      C13             2.6256296547      -16.2529474863       10.8612336402  MEMB      8               0.0000000000
       847         8  CHL1      C18             1.4037468080      -15.7299580563       10.0593798783  MEMB      8               0.0000000000
       848         8  CHL1      H18A            1.7172525135      -15.0308517539        9.2591358239  MEMB      8               0.0000000000
       849         8  CHL1      H18B            0.8601923587      -16.5745792029        9.5897173675  MEMB      8               0.0000000000
       850         8  CHL1      H18C            0.6864770623      -15.2048356370       10.7178192168  MEMB      8               0.0000000000
       851         8  CHL1      C12             2.2106046159      -17.2827205605       11.9308306040  MEMB      8               0.0000000000
       852         8  CHL1      H12A            1.6105795409      -18.0936791711       11.4681839909  MEMB      8               0.0000000000
       853         8  CHL1      H12B            3.1202462550      -17.7365953916       12.3779006581  MEMB      8               0.0000000000
       854         8  CHL1      C11             1.3849154442      -16.6062320598       13.0520895665  MEMB      8               0.0000000000
       855         8  CHL1      H11A            0.4331940950      -16.3085812340       12.5782604442  MEMB      8               0.0000000000
       856         8  CHL1      H11B            1.1595953238      -17.3500567093       13.8432099961  MEMB      8               0.0000000000
       857         8  CHL1      C9              2.0365871370      -15.3290515227       13.6744915489  MEMB      8               0.0000000000
       858         8  CHL1      H9              2.9705077947      -15.6917315960       14.1722458614  MEMB      8               0.0000000000
       859         8  CHL1      C10             1.2168256800      -14.6070917608       14.7769679519  MEMB      8               0.0000000000
       860         8  CHL1      C19            -0.2265709299      -14.3496165304       14.2709953970  MEMB      8               0.0000000000
       861         8  CHL1      H19A           -0.8705982873      -13.9343375688       15.0700224563  MEMB      8               0.0000000000
       862         8  CHL1      H19B           -0.2230014983      -13.6249936481       13.4288915034  MEMB      8               0.0000000000
       863         8  CHL1      H19C           -0.7034159210      -15.2749531521       13.9209472381  MEMB      8               0.0000000000
       864         8  CHL1      C1              1.2463319221      -15.4838997395       16.0593782202  MEMB      8               0.0000000000
       865         8  CHL1      H1A             0.7699999964      -16.4637470991       15.8519968979  MEMB      8               0.0000000000
       866         8  CHL1      H1B             2.3131850535      -15.6796403590       16.3202144326  MEMB      8               0.0000000000
       867         8  CHL1      C2              0.5649489657      -14.8356497941       17.2768108997  MEMB      8               0.0000000000
       868         8  CHL1      H2A             0.6977035064      -15.4838820253       18.1710434429  MEMB      8               0.0000000000
       869         8  CHL1      H2B            -0.5257362368      -14.7623399039       17.0792864319  MEMB      8               0.0000000000
       870         8  CHL1      C20             3.4026991111      -17.3403852652        8.5356356469  MEMB      8               0.0000000000
       871         8  CHL1      H20             2.7223107833      -16.6796704562        7.9528619434  MEMB      8               0.0000000000
       872         8  CHL1      C21             2.6907324929      -18.6830803372        8.7986562301  MEMB      8               0.0000000000
       873         8  CHL1      H21A            3.3289857566      -19.3469680871        9.4176911271  MEMB      8               0.0000000000
       874         8  CHL1      H21B            2.4667968786      -19.1963308974        7.8405874179  MEMB      8               0.0000000000
       875         8  CHL1      H21C            1.7261878632      -18.5354885147        9.3217501885  MEMB      8               0.0000000000
       876         8  CHL1      C22             4.6909564892      -17.5430846453        7.6826474873  MEMB      8               0.0000000000
       877         8  CHL1      H22A            5.1966412561      -16.5745272247        7.5179040378  MEMB      8               0.0000000000
       878         8  CHL1      H22B            5.3966516577      -18.1851639301        8.2425672830  MEMB      8               0.0000000000
       879         8  CHL1      C23             4.5195453096      -18.0840138966        6.2580029260  MEMB      8               0.0000000000
       880         8  CHL1      H23A            5.5368857548      -18.3309633723        5.8747548492  MEMB      8               0.0000000000
       881         8  CHL1      H23B            3.9405506534      -19.0265743541        6.2763211864  MEMB      8               0.0000000000
       882         8  CHL1      C24             3.8533770086      -17.0624913254        5.3170380082  MEMB      8               0.0000000000
       883         8  CHL1      H24A            2.7937131454      -16.9493208701        5.6360437981  MEMB      8               0.0000000000
       884         8  CHL1      H24B            4.3527915523      -16.0748487502        5.4007563734  MEMB      8               0.0000000000
       885         8  CHL1      C25             3.8580975157      -17.5040610728        3.8439409713  MEMB      8               0.0000000000
       886         8  CHL1      H25             3.4908812893      -18.5439290988        3.8807149487  MEMB      8               0.0000000000
       887         8  CHL1      C26             2.8000055282      -16.7988684841        2.9864848614  MEMB      8               0.0000000000
       888         8  CHL1      H26A            2.9638269117      -15.7040397635        2.9651262051  MEMB      8               0.0000000000
       889         8  CHL1      H26B            2.8368974500      -17.1995837665        1.9488740533  MEMB      8               0.0000000000
       890         8  CHL1      H26C            1.7918183120      -17.0153782349        3.4025118174  MEMB      8               0.0000000000
       891         8  CHL1      C27             5.2585766309      -17.4330864112        3.1964373931  MEMB      8               0.0000000000
       892         8  CHL1      H27A            5.6073342144      -16.3802542464        3.1453103470  MEMB      8               0.0000000000
       893         8  CHL1      H27B            6.0090427131      -18.0159691507        3.7693563991  MEMB      8               0.0000000000
       894         8  CHL1      H27C            5.2340615917      -17.8386469168        2.1620198583  MEMB      8               0.0000000000
       895         9  OSM       N              13.0201267893       -2.9100849227       22.9688344727  MEMB      9               0.0000000000
       896         9  OSM       C15            13.6561375530       -2.2836096373       24.1505042343  MEMB      9               0.0000000000
       897         9  OSM       H15A           14.7105696155       -2.5076661240       24.2048661006  MEMB      9               0.0000000000
       898         9  OSM       H15B           13.2008923884       -2.6679335882       25.0669138649  MEMB      9               0.0000000000
       899         9  OSM       H15C           13.4765686601       -1.2220561949       24.1686412597  MEMB      9               0.0000000000
       900         9  OSM       C14            13.3505305086       -4.3699393534       22.9313216408  MEMB      9               0.0000000000
       901         9  OSM       H14A           13.0648666222       -4.8721143144       23.8520939588  MEMB      9               0.0000000000
       902         9  OSM       H14B           14.3930091748       -4.5665176083       22.7471473086  MEMB      9               0.0000000000
       903         9  OSM       H14C           12.8114776294       -4.8141740196       22.0907506037  MEMB      9               0.0000000000
       904         9  OSM       C13            11.5297085546       -2.8200827784       23.1083649977  MEMB      9               0.0000000000
       905         9  OSM       H13A           11.1787597610       -1.8185575896       23.3232935786  MEMB      9               0.0000000000
       906         9  OSM       H13B           11.1923306605       -3.4451669079       23.9341023720  MEMB      9               0.0000000000
       907         9  OSM       H13C           11.0594607941       -3.2342999200       22.2187498292  MEMB      9               0.0000000000
       908         9  OSM       C12            13.5017026391       -2.2483095351       21.6912061337  MEMB      9               0.0000000000
       909         9  OSM       H12A           14.5077881985       -2.5929226554       21.4907274249  MEMB      9               0.0000000000
       910         9  OSM       H12B           13.5543672108       -1.1839026372       21.8555047917  MEMB      9               0.0000000000
       911         9  OSM       C11            12.6829338091       -2.5307829891       20.4147240419  MEMB      9               0.0000000000
       912         9  OSM       H11A           13.2097827784       -2.1157189188       19.5194498269  MEMB      9               0.0000000000
       913         9  OSM       H11B           11.7014462024       -2.0102249517       20.5108183279  MEMB      9               0.0000000000
       914         9  OSM       P              11.2792598275       -4.4610617318       19.3997752826  MEMB      9               0.0000000000
       915         9  OSM       O13            11.6284944938       -5.7485693515       18.7672844617  MEMB      9               0.0000000000
       916         9  OSM       O14            10.0713726390       -4.4240300031       20.2796963477  MEMB      9               0.0000000000
       917         9  OSM       O11            11.0918351851       -3.3297345308       18.3010825285  MEMB      9               0.0000000000
       918         9  OSM       O12            12.5122178639       -3.9347293342       20.2678728144  MEMB      9               0.0000000000
       919         9  OSM       C1S            10.4694025107       -3.6871570947       17.0599393264  MEMB      9               0.0000000000
       920         9  OSM       H1S            10.1793670140       -2.7565825877       16.5232947329  MEMB      9               0.0000000000
       921         9  OSM       H1T             9.5233992209       -4.2531185558       17.2353028700  MEMB      9               0.0000000000
       922         9  OSM       NF             11.8629951640       -3.6453603129       15.0220119459  MEMB      9               0.0000000000
       923         9  OSM       HNF            11.4270332051       -3.7487612567       14.1385300012  MEMB      9               0.0000000000
       924         9  OSM       C2S            11.3995684183       -4.5091854084       16.1074862864  MEMB      9               0.0000000000
       925         9  OSM       H2S            12.2962669184       -4.8735530879       16.6534360857  MEMB      9               0.0000000000
       926         9  OSM       C3S            10.6144157127       -5.7649457099       15.5931826403  MEMB      9               0.0000000000
       927         9  OSM       H3S             9.5546524583       -5.4928418867       15.3912297848  MEMB      9               0.0000000000
       928         9  OSM       O3             10.6338619231       -6.8775029256       16.4906302191  MEMB      9               0.0000000000
       929         9  OSM       HO3            11.1216778964       -6.5980892158       17.2886701696  MEMB      9               0.0000000000
       930         9  OSM       C4S            11.2418102874       -6.1996653579       14.2918555969  MEMB      9               0.0000000000
       931         9  OSM       H4S            10.5766670506       -6.2359779489       13.4188309532  MEMB      9               0.0000000000
       932         9  OSM       C5S            12.5517497455       -6.4974291505       14.2165167175  MEMB      9               0.0000000000
       933         9  OSM       H5S            13.1442110686       -6.4169848866       15.1402707615  MEMB      9               0.0000000000
       934         9  OSM       C6S            13.3748613502       -6.9311401283       13.0566993971  MEMB      9               0.0000000000
       935         9  OSM       H6S            12.8842034586       -7.7222794348       12.4623838617  MEMB      9               0.0000000000
       936         9  OSM       H6T            14.2660333152       -7.4135094020       13.4957834819  MEMB      9               0.0000000000
       937         9  OSM       C7S            13.8859688800       -5.8115335202       12.1389447834  MEMB      9               0.0000000000
       938         9  OSM       H7S            14.9224573269       -6.0919125840       11.8346170178  MEMB      9               0.0000000000
       939         9  OSM       H7T            13.9631598831       -4.8319696459       12.6560720447  MEMB      9               0.0000000000
       940         9  OSM       C8S            13.0502828025       -5.7143712099       10.8649055147  MEMB      9               0.0000000000
       941         9  OSM       H8S            12.1097209746       -5.1521789659       11.0529555021  MEMB      9               0.0000000000
       942         9  OSM       H8T            12.7704036360       -6.7447101847       10.5528579051  MEMB      9               0.0000000000
       943         9  OSM       C9S            13.8345684250       -5.1117963341        9.6994348644  MEMB      9               0.0000000000
       944         9  OSM       H9S            14.8610949655       -5.5278838175        9.6395276295  MEMB      9               0.0000000000
       945         9  OSM       H9T            13.9530146424       -4.0310835137        9.9137857214  MEMB      9               0.0000000000
       946         9  OSM       C10S           13.1284306235       -5.3589275021        8.3595958349  MEMB      9               0.0000000000
       947         9  OSM       H10S           13.4901067923       -4.6351787359        7.6088462615  MEMB      9               0.0000000000
       948         9  OSM       H10T           12.0311743861       -5.2273373918        8.4830773614  MEMB      9               0.0000000000
       949         9  OSM       C11S           13.4345480891       -6.7022321345        7.7110054944  MEMB      9               0.0000000000
       950         9  OSM       H11S           13.3653303556       -7.4761963898        8.4905418238  MEMB      9               0.0000000000
       951         9  OSM       H11T           14.4845984186       -6.6876890288        7.3413110505  MEMB      9               0.0000000000
       952         9  OSM       C12S           12.4742448303       -7.0421384008        6.5624157374  MEMB      9               0.0000000000
       953         9  OSM       H12S           11.4351490958       -7.0793109865        6.9622628319  MEMB      9               0.0000000000
       954         9  OSM       H12T           12.7275912154       -8.0465410443        6.1618646598  MEMB      9               0.0000000000
       955         9  OSM       C13S           12.5188429422       -6.0300780427        5.4157124765  MEMB      9               0.0000000000
       956         9  OSM       H13S           13.5530386799       -5.9361773893        5.0191527701  MEMB      9               0.0000000000
       957         9  OSM       H13T           12.2263205942       -5.0421843685        5.8267507817  MEMB      9               0.0000000000
       958         9  OSM       C14S           11.5504465259       -6.3563470551        4.2738976526  MEMB      9               0.0000000000
       959         9  OSM       H14S           10.5352949457       -6.4920522494        4.7183725361  MEMB      9               0.0000000000
       960         9  OSM       H14T           11.8322924457       -7.2914275237        3.7509094196  MEMB      9               0.0000000000
       961         9  OSM       C15S           11.4502446724       -5.1804252365        3.3002132752  MEMB      9               0.0000000000
       962         9  OSM       H15S           11.1890486941       -4.3448562517        3.9747284729  MEMB      9               0.0000000000
       963         9  OSM       H15T           10.6071106859       -5.2998053642        2.5941016238  MEMB      9               0.0000000000
       964         9  OSM       C16S           12.7082888996       -4.8288179254        2.4901827361  MEMB      9               0.0000000000
       965         9  OSM       H16S           13.5403324808       -4.5434891856        3.1706820490  MEMB      9               0.0000000000
       966         9  OSM       H16T           12.4907034528       -3.9454840801        1.8465052062  MEMB      9               0.0000000000
       967         9  OSM       C17S           13.1715393830       -5.9590749693        1.5817105604  MEMB      9               0.0000000000
       968         9  OSM       H17S           12.2852573362       -6.4842706623        1.1562729810  MEMB      9               0.0000000000
       969         9  OSM       H17T           13.7174478600       -6.6720272063        2.2293623267  MEMB      9               0.0000000000
       970         9  OSM       C18S           14.0745669747       -5.4848116412        0.4478546680  MEMB      9               0.0000000000
       971         9  OSM       H18S           13.5264442578       -4.7616407952       -0.1976612201  MEMB      9               0.0000000000
       972         9  OSM       H18T           14.3920058824       -6.3507811813       -0.1737099390  MEMB      9               0.0000000000
       973         9  OSM       H18U           14.9855171677       -4.9832521356        0.8359362005  MEMB      9               0.0000000000
       974         9  OSM       C1F            12.8875029890       -2.7937231448       15.1178239107  MEMB      9               0.0000000000
       975         9  OSM       OF             13.6751285955       -2.7691383498       16.0543898323  MEMB      9               0.0000000000
       976         9  OSM       C2F            13.0691817049       -1.9213232677       13.9270656636  MEMB      9               0.0000000000
       977         9  OSM       H2F            13.3275588474       -2.5614626432       13.0547395727  MEMB      9               0.0000000000
       978         9  OSM       H2G            13.9115373572       -1.2195626456       14.1032188895  MEMB      9               0.0000000000
       979         9  OSM       C3F            11.7639568601       -1.1470239083       13.6526777791  MEMB      9               0.0000000000
       980         9  OSM       H3F            11.6113527006       -0.4021333633       14.4702454679  MEMB      9               0.0000000000
       981         9  OSM       H3G            10.8711957043       -1.8121978193       13.6412475683  MEMB      9               0.0000000000
       982         9  OSM       C4F            11.8059901556       -0.4204326970       12.3097360957  MEMB      9               0.0000000000
       983         9  OSM       H4F            12.8565204207       -0.1378017380       12.0752622376  MEMB      9               0.0000000000
       984         9  OSM       H4G            11.2271716359        0.5239005217       12.4043649200  MEMB      9               0.0000000000
       985         9  OSM       C5F            11.2218733895       -1.2736105008       11.1810238345  MEMB      9               0.0000000000
       986         9  OSM       H5F            10.2027466694       -1.6306518346       11.4509518851  MEMB      9               0.0000000000
       987         9  OSM       H5G            11.8601891473       -2.1779404367       11.0698633304  MEMB      9               0.0000000000
       988         9  OSM       C6F            11.1415680368       -0.4918237524        9.8637143857  MEMB      9               0.0000000000
       989         9  OSM       H6F            12.1493914818       -0.0778638985        9.6332232415  MEMB      9               0.0000000000
       990         9  OSM       H6G            10.4674091855        0.3810468153        9.9803642479  MEMB      9               0.0000000000
       991         9  OSM       C7F            10.6512080817       -1.3387831079        8.6812495378  MEMB      9               0.0000000000
       992         9  OSM       H7F            10.6641450269       -0.7210427571        7.7551700765  MEMB      9               0.0000000000
       993         9  OSM       H7G             9.6014906589       -1.6605517582        8.8582065114  MEMB      9               0.0000000000
       994         9  OSM       C8F            11.5059160940       -2.5865054341        8.4465154160  MEMB      9               0.0000000000
       995         9  OSM       H8F            11.1633661587       -3.0926711360        7.5167282815  MEMB      9               0.0000000000
       996         9  OSM       H8G            11.3022219820       -3.3084159992        9.2716138636  MEMB      9               0.0000000000
       997         9  OSM       C9F            12.9772717901       -2.2325107901        8.4326251289  MEMB      9               0.0000000000
       998         9  OSM       H9F            13.4128757674       -2.1306150803        9.4371326200  MEMB      9               0.0000000000
       999         9  OSM       C10F           13.8106250055       -2.1863565729        7.3826137627  MEMB      9               0.0000000000
      1000         9  OSM       H10F           14.8910007385       -2.0735040578        7.5594435322  MEMB      9               0.0000000000
      1001         9  OSM       C11F           13.4171020105       -2.4902623139        5.9685278570  MEMB      9               0.0000000000
      1002         9  OSM       H11F           12.4840676380       -3.0866653064        5.9252354204  MEMB      9               0.0000000000
      1003         9  OSM       H11G           14.1987681736       -3.0998750287        5.4616908159  MEMB      9               0.0000000000
      1004         9  OSM       C12F           13.1570881495       -1.2091045409        5.1835800481  MEMB      9               0.0000000000
      1005         9  OSM       H12F           14.0893044183       -0.6076106828        5.1493144734  MEMB      9               0.0000000000
      1006         9  OSM       H12G           12.3601037995       -0.6045857344        5.6731918918  MEMB      9               0.0000000000
      1007         9  OSM       C13F           12.7074472554       -1.5605316668        3.7739354551  MEMB      9               0.0000000000
      1008         9  OSM       H13F           13.3376320229       -2.3963974037        3.3994588770  MEMB      9               0.0000000000
      1009         9  OSM       H13G           12.8540049597       -0.7134242389        3.0789126506  MEMB      9               0.0000000000
      1010         9  OSM       C14F           11.2296735942       -1.9285945833        3.7157255154  MEMB      9               0.0000000000
      1011         9  OSM       H14F           10.8725155066       -2.3785694967        4.6676707238  MEMB      9               0.0000000000
      1012         9  OSM       H14G           11.1463258461       -2.6901120622        2.9277305933  MEMB      9               0.0000000000
      1013         9  OSM       C15F           10.3598303552       -0.7457510209        3.3303715987  MEMB      9               0.0000000000
      1014         9  OSM       H15F           10.9880296927        0.0641850703        2.8950154741  MEMB      9               0.0000000000
      1015         9  OSM       H15G            9.9401161056       -0.4115786286        4.2940103735  MEMB      9               0.0000000000
      1016         9  OSM       C16F            9.2159091522       -1.0189956514        2.3524157605  MEMB      9               0.0000000000
      1017         9  OSM       H16F            8.9220894975       -0.0402316424        1.9084001371  MEMB      9               0.0000000000
      1018         9  OSM       H16G            8.3497535624       -1.4043411939        2.9390010105  MEMB      9               0.0000000000
      1019         9  OSM       C17F            9.5130369096       -2.0356156317        1.2370050907  MEMB      9               0.0000000000
      1020         9  OSM       H17F            8.6476191104       -2.0607491980        0.5430960347  MEMB      9               0.0000000000
      1021         9  OSM       H17G            9.5451483828       -3.0347802355        1.7287839439  MEMB      9               0.0000000000
      1022         9  OSM       C18F           10.8317134272       -1.8704795648        0.4585093477  MEMB      9               0.0000000000
      1023         9  OSM       H18F           11.6520271159       -1.5373317980        1.1282291105  MEMB      9               0.0000000000
      1024         9  OSM       H18G           10.7485229922       -1.1334884740       -0.3690399229  MEMB      9               0.0000000000
      1025         9  OSM       H18H           11.1233055731       -2.8561982811        0.0261593918  MEMB      9               0.0000000000
      1026        10  OSM       N             -11.6277541034       -9.4386565061       22.4121170454  MEMB      10              0.0000000000
      1027        10  OSM       C15           -11.6183377920       -9.9521465514       23.8123091677  MEMB      10              0.0000000000
      1028        10  OSM       H15A          -11.5983252482      -11.0396288071       23.7907817913  MEMB      10              0.0000000000
      1029        10  OSM       H15B          -12.5170870447       -9.6609631634       24.3460003100  MEMB      10              0.0000000000
      1030        10  OSM       H15C          -10.7301306780       -9.6447702167       24.3628518537  MEMB      10              0.0000000000
      1031        10  OSM       C14           -10.2548342509       -9.5351414898       21.8321830073  MEMB      10              0.0000000000
      1032        10  OSM       H14A           -9.5534943006       -8.9767726949       22.4376769964  MEMB      10              0.0000000000
      1033        10  OSM       H14B          -10.2532848741       -9.0360266340       20.8605021823  MEMB      10              0.0000000000
      1034        10  OSM       H14C           -9.9035117041      -10.5534320810       21.7112038347  MEMB      10              0.0000000000
      1035        10  OSM       C13           -12.5853999164      -10.2468075374       21.5928055420  MEMB      10              0.0000000000
      1036        10  OSM       H13A          -12.2094846487      -11.2427559280       21.3976705945  MEMB      10              0.0000000000
      1037        10  OSM       H13B          -12.7640498768       -9.7650519949       20.6329898220  MEMB      10              0.0000000000
      1038        10  OSM       H13C          -13.5400485791      -10.3233272018       22.1004921971  MEMB      10              0.0000000000
      1039        10  OSM       C12           -12.0833070125       -7.9842041862       22.3178348478  MEMB      10              0.0000000000
      1040        10  OSM       H12A          -11.4766022015       -7.3570769711       22.9541779220  MEMB      10              0.0000000000
      1041        10  OSM       H12B          -13.1141784277       -7.8771280219       22.6607401019  MEMB      10              0.0000000000
      1042        10  OSM       C11           -12.0611515853       -7.3343363848       20.9118940558  MEMB      10              0.0000000000
      1043        10  OSM       H11A          -12.7553372652       -6.4569889183       20.9370426719  MEMB      10              0.0000000000
      1044        10  OSM       H11B          -12.4759316367       -8.0043628431       20.1299336509  MEMB      10              0.0000000000
      1045        10  OSM       P             -10.3868446432       -5.5420825466       20.0185717118  MEMB      10              0.0000000000
      1046        10  OSM       O13           -11.4570816759       -4.5805256928       20.3113540476  MEMB      10              0.0000000000
      1047        10  OSM       O14            -9.0624869415       -5.1856826214       20.5816616900  MEMB      10              0.0000000000
      1048        10  OSM       O11           -10.2769786911       -5.7584395103       18.4526641412  MEMB      10              0.0000000000
      1049        10  OSM       O12           -10.7260739687       -6.9823342698       20.5817106581  MEMB      10              0.0000000000
      1050        10  OSM       C1S           -10.1705840946       -7.0656110627       17.8840012588  MEMB      10              0.0000000000
      1051        10  OSM       H1S           -10.9707855942       -7.7410153987       18.2660487832  MEMB      10              0.0000000000
      1052        10  OSM       H1T            -9.1773783325       -7.5101304802       18.1187927224  MEMB      10              0.0000000000
      1053        10  OSM       NF             -9.8831204063       -8.2563376284       15.7158903088  MEMB      10              0.0000000000
      1054        10  OSM       HNF            -8.9659480634       -8.2580807927       15.3317256811  MEMB      10              0.0000000000
      1055        10  OSM       C2S           -10.3379828627       -7.0073080825       16.3388944789  MEMB      10              0.0000000000
      1056        10  OSM       H2S           -11.4207119867       -6.8618477843       16.1194818854  MEMB      10              0.0000000000
      1057        10  OSM       C3S            -9.5687854882       -5.7698960419       15.7853963964  MEMB      10              0.0000000000
      1058        10  OSM       H3S            -8.5330334480       -5.7288522282       16.1799931727  MEMB      10              0.0000000000
      1059        10  OSM       O3            -10.1900683219       -4.5125586369       16.0698178379  MEMB      10              0.0000000000
      1060        10  OSM       HO3           -10.6850738769       -4.6903966630       16.8847724466  MEMB      10              0.0000000000
      1061        10  OSM       C4S            -9.5531627695       -5.8780733292       14.3040477611  MEMB      10              0.0000000000
      1062        10  OSM       H4S           -10.5262458509       -5.6830829602       13.8336336002  MEMB      10              0.0000000000
      1063        10  OSM       C5S            -8.4730826383       -6.1786975574       13.5637088069  MEMB      10              0.0000000000
      1064        10  OSM       H5S            -7.4991446017       -6.3499345159       14.0577673996  MEMB      10              0.0000000000
      1065        10  OSM       C6S            -8.4852255635       -6.2898451759       12.0700069012  MEMB      10              0.0000000000
      1066        10  OSM       H6S            -7.9857327321       -7.2380172836       11.7714845595  MEMB      10              0.0000000000
      1067        10  OSM       H6T            -7.8733666404       -5.4543506607       11.6678210106  MEMB      10              0.0000000000
      1068        10  OSM       C7S            -9.8890127916       -6.2589691758       11.4265193026  MEMB      10              0.0000000000
      1069        10  OSM       H7S           -10.3662053893       -5.2744882626       11.6428743671  MEMB      10              0.0000000000
      1070        10  OSM       H7T           -10.5368833324       -7.0538696910       11.8637453514  MEMB      10              0.0000000000
      1071        10  OSM       C8S            -9.8832879344       -6.4415070990        9.9075754356  MEMB      10              0.0000000000
      1072        10  OSM       H8S           -10.6198701376       -5.7209421827        9.4826281615  MEMB      10              0.0000000000
      1073        10  OSM       H8T           -10.2508604476       -7.4499715450        9.6260351891  MEMB      10              0.0000000000
      1074        10  OSM       C9S            -8.5111456985       -6.2182156081        9.2587022585  MEMB      10              0.0000000000
      1075        10  OSM       H9S            -7.7959077940       -7.0248587217        9.5238249929  MEMB      10              0.0000000000
      1076        10  OSM       H9T            -8.0959506001       -5.2494837307        9.6260182412  MEMB      10              0.0000000000
      1077        10  OSM       C10S           -8.6473477035       -6.0826445211        7.7508307814  MEMB      10              0.0000000000
      1078        10  OSM       H10S           -8.1607084941       -5.1245143619        7.4493708415  MEMB      10              0.0000000000
      1079        10  OSM       H10T           -9.7351452000       -6.0442345977        7.5246341254  MEMB      10              0.0000000000
      1080        10  OSM       C11S           -8.0663354843       -7.1794288778        6.8958453625  MEMB      10              0.0000000000
      1081        10  OSM       H11S           -8.7895863562       -8.0177837027        6.8115987778  MEMB      10              0.0000000000
      1082        10  OSM       H11T           -7.1452100340       -7.5491006364        7.3763441904  MEMB      10              0.0000000000
      1083        10  OSM       C12S           -7.7538021737       -6.6697068170        5.4961672184  MEMB      10              0.0000000000
      1084        10  OSM       H12S           -7.1182627804       -5.7560971947        5.5468938911  MEMB      10              0.0000000000
      1085        10  OSM       H12T           -8.7043205179       -6.3995448570        4.9834033958  MEMB      10              0.0000000000
      1086        10  OSM       C13S           -7.0268374433       -7.7413486604        4.7071798311  MEMB      10              0.0000000000
      1087        10  OSM       H13S           -7.6165841960       -8.6824140049        4.7132098558  MEMB      10              0.0000000000
      1088        10  OSM       H13T           -6.0480475461       -7.9604693807        5.1940136771  MEMB      10              0.0000000000
      1089        10  OSM       C14S           -6.7760486861       -7.3227360175        3.2696041652  MEMB      10              0.0000000000
      1090        10  OSM       H14S           -6.2322304889       -8.1946669471        2.8375348371  MEMB      10              0.0000000000
      1091        10  OSM       H14T           -6.1427008896       -6.4061766317        3.2435568361  MEMB      10              0.0000000000
      1092        10  OSM       C15S           -8.0171666610       -7.0995685195        2.4121043750  MEMB      10              0.0000000000
      1093        10  OSM       H15S           -8.4090572565       -6.0676991443        2.5396088046  MEMB      10              0.0000000000
      1094        10  OSM       H15T           -8.7950477562       -7.7941063051        2.7960753715  MEMB      10              0.0000000000
      1095        10  OSM       C16S           -7.7339696154       -7.3727070012        0.9269567512  MEMB      10              0.0000000000
      1096        10  OSM       H16S           -6.9478199533       -8.1579401774        0.8320182545  MEMB      10              0.0000000000
      1097        10  OSM       H16T           -7.3372353054       -6.4559931178        0.4378875670  MEMB      10              0.0000000000
      1098        10  OSM       C17S           -8.9641681676       -7.8866746312        0.1814553823  MEMB      10              0.0000000000
      1099        10  OSM       H17S           -8.6834872041       -8.0715703170       -0.8786045353  MEMB      10              0.0000000000
      1100        10  OSM       H17T           -9.7309780961       -7.0821257962        0.1831069744  MEMB      10              0.0000000000
      1101        10  OSM       C18S           -9.5367835551       -9.1664283159        0.8015177349  MEMB      10              0.0000000000
      1102        10  OSM       H18S           -8.7328962082       -9.7539136360        1.2850478565  MEMB      10              0.0000000000
      1103        10  OSM       H18T          -10.0329157452       -9.8029858302        0.0443325955  MEMB      10              0.0000000000
      1104        10  OSM       H18U          -10.2718607910       -8.9186964440        1.5939632075  MEMB      10              0.0000000000
      1105        10  OSM       C1F           -10.6373397573       -9.3478423542       15.6160977287  MEMB      10              0.0000000000
      1106        10  OSM       OF            -11.7713770031       -9.3439620305       16.0622896054  MEMB      10              0.0000000000
      1107        10  OSM       C2F           -10.0086633327      -10.5592455650       14.9764632942  MEMB      10              0.0000000000
      1108        10  OSM       H2F            -9.8824012285      -11.3261490765       15.7735744673  MEMB      10              0.0000000000
      1109        10  OSM       H2G            -8.9983594169      -10.3045414296       14.5937144823  MEMB      10              0.0000000000
      1110        10  OSM       C3F           -10.8596328271      -11.1914114546       13.8434707095  MEMB      10              0.0000000000
      1111        10  OSM       H3F           -11.9063642152      -11.3273367558       14.1980330700  MEMB      10              0.0000000000
      1112        10  OSM       H3G           -10.4485187492      -12.2106174608       13.6551608008  MEMB      10              0.0000000000
      1113        10  OSM       C4F           -10.8655632694      -10.4385228203       12.4991718103  MEMB      10              0.0000000000
      1114        10  OSM       H4F           -11.3454600767       -9.4426043006       12.6168350688  MEMB      10              0.0000000000
      1115        10  OSM       H4G           -11.4925549281      -11.0191694766       11.7832814538  MEMB      10              0.0000000000
      1116        10  OSM       C5F            -9.4678357762      -10.2759508394       11.8843270130  MEMB      10              0.0000000000
      1117        10  OSM       H5F            -8.9029848298      -11.2271319075       11.9870000884  MEMB      10              0.0000000000
      1118        10  OSM       H5G            -8.9152931990       -9.4964593885       12.4557876389  MEMB      10              0.0000000000
      1119        10  OSM       C6F            -9.4933866723       -9.8698494138       10.4045431856  MEMB      10              0.0000000000
      1120        10  OSM       H6F            -8.8307620767       -8.9779024077       10.3069892667  MEMB      10              0.0000000000
      1121        10  OSM       H6G           -10.5166026943       -9.5726829331       10.0882349742  MEMB      10              0.0000000000
      1122        10  OSM       C7F            -8.9412750993      -10.9191713624        9.4274292802  MEMB      10              0.0000000000
      1123        10  OSM       H7F            -9.6169301205      -11.7966365511        9.3486490831  MEMB      10              0.0000000000
      1124        10  OSM       H7G            -7.9704121422      -11.2479538820        9.8477387560  MEMB      10              0.0000000000
      1125        10  OSM       C8F            -8.6987214617      -10.2667507866        8.0534721860  MEMB      10              0.0000000000
      1126        10  OSM       H8F            -8.0708048880       -9.3794887669        8.2880897671  MEMB      10              0.0000000000
      1127        10  OSM       H8G            -9.6864533174       -9.8837030139        7.7143192019  MEMB      10              0.0000000000
      1128        10  OSM       C9F            -7.9771556485      -11.0178269803        6.9591600125  MEMB      10              0.0000000000
      1129        10  OSM       H9F            -7.0034119765      -11.4373613396        7.2435843364  MEMB      10              0.0000000000
      1130        10  OSM       C10F           -8.3779121825      -11.1713491690        5.6839978049  MEMB      10              0.0000000000
      1131        10  OSM       H10F           -7.7337095207      -11.7335658682        4.9889829412  MEMB      10              0.0000000000
      1132        10  OSM       C11F           -9.6437692104      -10.6308196017        5.0661316898  MEMB      10              0.0000000000
      1133        10  OSM       H11F           -9.4272355755      -10.1065516436        4.1085752584  MEMB      10              0.0000000000
      1134        10  OSM       H11G          -10.1587417252       -9.8940025493        5.7198068949  MEMB      10              0.0000000000
      1135        10  OSM       C12F          -10.6098977357      -11.7943051631        4.8015940850  MEMB      10              0.0000000000
      1136        10  OSM       H12F          -10.5599859201      -12.5105931600        5.6536502045  MEMB      10              0.0000000000
      1137        10  OSM       H12G          -10.3013474482      -12.3209907712        3.8709711239  MEMB      10              0.0000000000
      1138        10  OSM       C13F          -12.0822864680      -11.3893469607        4.7005946717  MEMB      10              0.0000000000
      1139        10  OSM       H13F          -12.3560529928      -10.8328509252        5.6236046788  MEMB      10              0.0000000000
      1140        10  OSM       H13G          -12.7330855456      -12.2842633019        4.6280698798  MEMB      10              0.0000000000
      1141        10  OSM       C14F          -12.3898383046      -10.5872505619        3.4559351330  MEMB      10              0.0000000000
      1142        10  OSM       H14F          -12.5243719959      -11.2731347345        2.5879591890  MEMB      10              0.0000000000
      1143        10  OSM       H14G          -11.5079670424       -9.9406803055        3.2455217452  MEMB      10              0.0000000000
      1144        10  OSM       C15F          -13.6114199444       -9.6837142277        3.6012156845  MEMB      10              0.0000000000
      1145        10  OSM       H15F          -13.6971342056       -9.3376835861        4.6571802956  MEMB      10              0.0000000000
      1146        10  OSM       H15G          -14.5465608798      -10.2282926155        3.3440855545  MEMB      10              0.0000000000
      1147        10  OSM       C16F          -13.4066806283       -8.4496835932        2.7365691737  MEMB      10              0.0000000000
      1148        10  OSM       H16F          -12.5277580834       -7.9112705397        3.1661317246  MEMB      10              0.0000000000
      1149        10  OSM       H16G          -14.2711858454       -7.7638617850        2.7986193208  MEMB      10              0.0000000000
      1150        10  OSM       C17F          -13.1058260719       -8.7702826098        1.2720990864  MEMB      10              0.0000000000
      1151        10  OSM       H17F          -14.0277454509       -9.1103128537        0.7570091992  MEMB      10              0.0000000000
      1152        10  OSM       H17G          -12.3819751119       -9.6068025502        1.1707347395  MEMB      10              0.0000000000
      1153        10  OSM       C18F          -12.5314543920       -7.5431536388        0.5854082693  MEMB      10              0.0000000000
      1154        10  OSM       H18F          -13.2925783015       -7.0702441350       -0.0651982405  MEMB      10              0.0000000000
      1155        10  OSM       H18G          -11.6670267865       -7.8031168041       -0.0512704983  MEMB      10              0.0000000000
      1156        10  OSM       H18H          -12.1833678789       -6.8029513314        1.3410667891  MEMB      10              0.0000000000
      1157        11  CHL1      C3              9.4052537808       10.2080814471       17.5815394478  MEMB      11              0.0000000000
      1158        11  CHL1      H3              9.8246375868       11.1983238725       17.2885676640  MEMB      11              0.0000000000
      1159        11  CHL1      O3              9.5813061866       10.0874113928       18.9808834821  MEMB      11              0.0000000000
      1160        11  CHL1      H3'            10.4320739554        9.6301728852       19.0567643786  MEMB      11              0.0000000000
      1161        11  CHL1      C4              7.9253745991       10.1219112595       17.1696764498  MEMB      11              0.0000000000
      1162        11  CHL1      H4A             7.5439353852        9.1113768338       17.4364666762  MEMB      11              0.0000000000
      1163        11  CHL1      H4B             7.3493361223       10.8472554271       17.7869223629  MEMB      11              0.0000000000
      1164        11  CHL1      C5              7.7889019916       10.3777214492       15.6751141531  MEMB      11              0.0000000000
      1165        11  CHL1      C6              7.0107030852       11.3650388299       15.2025765602  MEMB      11              0.0000000000
      1166        11  CHL1      H6              6.4314956123       11.9753889278       15.9109644675  MEMB      11              0.0000000000
      1167        11  CHL1      C7              6.8211658522       11.6715896588       13.7381656560  MEMB      11              0.0000000000
      1168        11  CHL1      H7A             5.7368792204       11.7159834688       13.4907413970  MEMB      11              0.0000000000
      1169        11  CHL1      H7B             7.2484611198       12.6757027510       13.5308248392  MEMB      11              0.0000000000
      1170        11  CHL1      C8              7.4793369320       10.6552838625       12.7540847649  MEMB      11              0.0000000000
      1171        11  CHL1      H8              6.7776110993        9.8001965141       12.6321271730  MEMB      11              0.0000000000
      1172        11  CHL1      C14             7.7395564944       11.3200094180       11.3902819358  MEMB      11              0.0000000000
      1173        11  CHL1      H14             8.4681665015       12.1416904279       11.6084852061  MEMB      11              0.0000000000
      1174        11  CHL1      C15             6.5649672207       12.0074704038       10.6674839641  MEMB      11              0.0000000000
      1175        11  CHL1      H15A            5.6740468450       11.3426495655       10.6977840053  MEMB      11              0.0000000000
      1176        11  CHL1      H15B            6.3135404142       12.9776471121       11.1412216317  MEMB      11              0.0000000000
      1177        11  CHL1      C16             7.0646608915       12.1792160161        9.2142651074  MEMB      11              0.0000000000
      1178        11  CHL1      H16A            6.3385986887       11.6971798440        8.5246324818  MEMB      11              0.0000000000
      1179        11  CHL1      H16B            7.1627202915       13.2492117183        8.9400034796  MEMB      11              0.0000000000
      1180        11  CHL1      C17             8.4535169746       11.4615196909        9.1159792421  MEMB      11              0.0000000000
      1181        11  CHL1      H17             9.2215035974       12.2268340377        9.3696363110  MEMB      11              0.0000000000
      1182        11  CHL1      C13             8.4215962608       10.4629048644       10.3199570664  MEMB      11              0.0000000000
      1183        11  CHL1      C18             7.5219892896        9.2610982742        9.9656258566  MEMB      11              0.0000000000
      1184        11  CHL1      H18A            6.6017102883        9.5722872318        9.4362685750  MEMB      11              0.0000000000
      1185        11  CHL1      H18B            8.0694752183        8.5493795869        9.3238115137  MEMB      11              0.0000000000
      1186        11  CHL1      H18C            7.2229958540        8.6914936576       10.8664170223  MEMB      11              0.0000000000
      1187        11  CHL1      C12             9.7573043392        9.9665977286       10.8946915138  MEMB      11              0.0000000000
      1188        11  CHL1      H12A           10.2425833219        9.2833373491       10.1674784551  MEMB      11              0.0000000000
      1189        11  CHL1      H12B           10.4155709795       10.8493665308       11.0440287808  MEMB      11              0.0000000000
      1190        11  CHL1      C11             9.5605328702        9.2474319815       12.2581229671  MEMB      11              0.0000000000
      1191        11  CHL1      H11A            8.9975197241        8.3034399797       12.0975375291  MEMB      11              0.0000000000
      1192        11  CHL1      H11B           10.5598982888        8.9703068001       12.6511281010  MEMB      11              0.0000000000
      1193        11  CHL1      C9              8.8054777387       10.1194278279       13.3154328009  MEMB      11              0.0000000000
      1194        11  CHL1      H9              9.4492828950       11.0243384057       13.4401470595  MEMB      11              0.0000000000
      1195        11  CHL1      C10             8.6792370009        9.5068349447       14.7547087956  MEMB      11              0.0000000000
      1196        11  CHL1      C19             7.9483643953        8.1483601590       14.6853216543  MEMB      11              0.0000000000
      1197        11  CHL1      H19A            8.5075126694        7.4205900912       14.0639066070  MEMB      11              0.0000000000
      1198        11  CHL1      H19B            7.8448544396        7.6890072975       15.6914509078  MEMB      11              0.0000000000
      1199        11  CHL1      H19C            6.9330694695        8.2607264632       14.2522199944  MEMB      11              0.0000000000
      1200        11  CHL1      C1             10.1069436892        9.2917649143       15.3608824289  MEMB      11              0.0000000000
      1201        11  CHL1      H1A            10.5677481700        8.4049489782       14.8713433160  MEMB      11              0.0000000000
      1202        11  CHL1      H1B            10.7309806312       10.1799886179       15.1283596704  MEMB      11              0.0000000000
      1203        11  CHL1      C2             10.1674626777        9.0824509622       16.8839309075  MEMB      11              0.0000000000
      1204        11  CHL1      H2A            11.2253900631        9.0601516994       17.2227765072  MEMB      11              0.0000000000
      1205        11  CHL1      H2B             9.7041391666        8.1008510064       17.1438001516  MEMB      11              0.0000000000
      1206        11  CHL1      C20             8.7922135916       10.9452587793        7.6908824367  MEMB      11              0.0000000000
      1207        11  CHL1      H20             8.1627472503       10.0531423145        7.5516676303  MEMB      11              0.0000000000
      1208        11  CHL1      C21            10.2566585440       10.4511728915        7.5703022262  MEMB      11              0.0000000000
      1209        11  CHL1      H21A           10.5873742688       10.4891255218        6.5088017631  MEMB      11              0.0000000000
      1210        11  CHL1      H21B           10.3418888974        9.3916212714        7.8904443049  MEMB      11              0.0000000000
      1211        11  CHL1      H21C           10.9510098744       11.0704921279        8.1710100630  MEMB      11              0.0000000000
      1212        11  CHL1      C22             8.4532062747       11.8718374252        6.4655175022  MEMB      11              0.0000000000
      1213        11  CHL1      H22A            7.8687032800       12.7617712805        6.7643687733  MEMB      11              0.0000000000
      1214        11  CHL1      H22B            9.4118365519       12.2496235048        6.0478657290  MEMB      11              0.0000000000
      1215        11  CHL1      C23             7.6872316576       11.1229632931        5.3348951360  MEMB      11              0.0000000000
      1216        11  CHL1      H23A            7.8945589193       10.0496336432        5.4622306890  MEMB      11              0.0000000000
      1217        11  CHL1      H23B            6.5934577487       11.2159602845        5.4961040815  MEMB      11              0.0000000000
      1218        11  CHL1      C24             8.0647578697       11.4594362783        3.8676646862  MEMB      11              0.0000000000
      1219        11  CHL1      H24A            7.4643004427       12.3331720586        3.5357121176  MEMB      11              0.0000000000
      1220        11  CHL1      H24B            9.1361751388       11.7541890315        3.8368640199  MEMB      11              0.0000000000
      1221        11  CHL1      C25             7.8935299512       10.2842255380        2.8522811158  MEMB      11              0.0000000000
      1222        11  CHL1      H25             8.5215120671        9.4403573579        3.2041999329  MEMB      11              0.0000000000
      1223        11  CHL1      C26             6.4720498360        9.6967538298        2.8260914668  MEMB      11              0.0000000000
      1224        11  CHL1      H26A            6.2758882208        9.1406838381        3.7659828780  MEMB      11              0.0000000000
      1225        11  CHL1      H26B            5.7151105010       10.4877730222        2.7439490267  MEMB      11              0.0000000000
      1226        11  CHL1      H26C            6.3492591891        8.9823430743        1.9845234216  MEMB      11              0.0000000000
      1227        11  CHL1      C27             8.4571807477       10.5841910358        1.4429166244  MEMB      11              0.0000000000
      1228        11  CHL1      H27A            8.4048405796       11.6626826870        1.1914034381  MEMB      11              0.0000000000
      1229        11  CHL1      H27B            9.5247493912       10.2735008420        1.3848058912  MEMB      11              0.0000000000
      1230        11  CHL1      H27C            7.9040539930       10.0060786923        0.6696302378  MEMB      11              0.0000000000
      1231        12  CHL1      C3             -5.9735788368      -13.8012737617       17.4635407703  MEMB      12              0.0000000000
      1232        12  CHL1      H3             -4.8645489235      -13.6841020814       17.4948398585  MEMB      12              0.0000000000
      1233        12  CHL1      O3             -6.4557232885      -13.8184525917       18.7966640228  MEMB      12              0.0000000000
      1234        12  CHL1      H3'            -6.4551327616      -12.9087625177       19.1389486780  MEMB      12              0.0000000000
      1235        12  CHL1      C4             -6.6104977018      -12.6195304133       16.7215548665  MEMB      12              0.0000000000
      1236        12  CHL1      H4A            -7.7147687009      -12.6890151847       16.8242582674  MEMB      12              0.0000000000
      1237        12  CHL1      H4B            -6.2979452192      -11.6864333650       17.2465552962  MEMB      12              0.0000000000
      1238        12  CHL1      C5             -6.2501567958      -12.5930062048       15.2545456074  MEMB      12              0.0000000000
      1239        12  CHL1      C6             -5.7151589343      -11.4937751025       14.7149220988  MEMB      12              0.0000000000
      1240        12  CHL1      H6             -5.5503827502      -10.6036242703       15.3435234103  MEMB      12              0.0000000000
      1241        12  CHL1      C7             -5.4039884430      -11.3613252201       13.2582704017  MEMB      12              0.0000000000
      1242        12  CHL1      H7A            -5.8171095900      -10.4048613947       12.8691492286  MEMB      12              0.0000000000
      1243        12  CHL1      H7B            -4.3015217556      -11.3207186122       13.1287345418  MEMB      12              0.0000000000
      1244        12  CHL1      C8             -5.9280445949      -12.5328958204       12.3878956414  MEMB      12              0.0000000000
      1245        12  CHL1      H8             -7.0000371501      -12.3644881497       12.1545814812  MEMB      12              0.0000000000
      1246        12  CHL1      C14            -5.1279717712      -12.5503830689       11.1127078110  MEMB      12              0.0000000000
      1247        12  CHL1      H14            -4.0762339833      -12.7820667524       11.4360922310  MEMB      12              0.0000000000
      1248        12  CHL1      C15            -5.0028290225      -11.2032638569       10.4036427941  MEMB      12              0.0000000000
      1249        12  CHL1      H15A           -5.9780531577      -10.6761887329       10.3573373454  MEMB      12              0.0000000000
      1250        12  CHL1      H15B           -4.2624831554      -10.5630957617       10.9241298835  MEMB      12              0.0000000000
      1251        12  CHL1      C16            -4.5097783129      -11.5960177119        9.0261325451  MEMB      12              0.0000000000
      1252        12  CHL1      H16A           -5.2258015113      -11.1846851904        8.2835474369  MEMB      12              0.0000000000
      1253        12  CHL1      H16B           -3.5025386995      -11.1761704079        8.8260402304  MEMB      12              0.0000000000
      1254        12  CHL1      C17            -4.4737937687      -13.1585370197        8.9648751431  MEMB      12              0.0000000000
      1255        12  CHL1      H17            -3.4552115503      -13.4623683972        9.3034669597  MEMB      12              0.0000000000
      1256        12  CHL1      C13            -5.4412221832      -13.6349125900       10.0807065493  MEMB      12              0.0000000000
      1257        12  CHL1      C18            -6.8899263063      -13.6019169548        9.5524480937  MEMB      12              0.0000000000
      1258        12  CHL1      H18A           -7.0342017940      -12.7765845380        8.8377751432  MEMB      12              0.0000000000
      1259        12  CHL1      H18B           -7.1233738737      -14.5491506496        9.0224982515  MEMB      12              0.0000000000
      1260        12  CHL1      H18C           -7.6193632218      -13.4921732950       10.3802827113  MEMB      12              0.0000000000
      1261        12  CHL1      C12            -5.1941887597      -14.9771193274       10.7959612217  MEMB      12              0.0000000000
      1262        12  CHL1      H12A           -5.4755924264      -15.8115817876       10.1269225061  MEMB      12              0.0000000000
      1263        12  CHL1      H12B           -4.1143642754      -15.0755621120       11.0311362046  MEMB      12              0.0000000000
      1264        12  CHL1      C11            -6.0116855251      -15.0666017565       12.1174750352  MEMB      12              0.0000000000
      1265        12  CHL1      H11A           -7.0913353582      -15.0956252738       11.8609605249  MEMB      12              0.0000000000
      1266        12  CHL1      H11B           -5.7641574945      -16.0223530886       12.6219878955  MEMB      12              0.0000000000
      1267        12  CHL1      C9             -5.7487094455      -13.8710894425       13.0889868678  MEMB      12              0.0000000000
      1268        12  CHL1      H9             -4.6562134482      -13.9358609785       13.3232068108  MEMB      12              0.0000000000
      1269        12  CHL1      C10            -6.4725135971      -13.9040336921       14.4662882094  MEMB      12              0.0000000000
      1270        12  CHL1      C19            -8.0027912828      -14.0217630062       14.2429088112  MEMB      12              0.0000000000
      1271        12  CHL1      H19A           -8.3796202048      -13.1835141646       13.6211650650  MEMB      12              0.0000000000
      1272        12  CHL1      H19B           -8.2446620698      -14.9771560562       13.7367882027  MEMB      12              0.0000000000
      1273        12  CHL1      H19C           -8.5593423150      -14.0070734680       15.2013579152  MEMB      12              0.0000000000
      1274        12  CHL1      C1             -5.9288522764      -15.1138940266       15.2833108020  MEMB      12              0.0000000000
      1275        12  CHL1      H1A            -6.2830714312      -16.0564420167       14.8126688920  MEMB      12              0.0000000000
      1276        12  CHL1      H1B            -4.8176169511      -15.1099459829       15.2228390044  MEMB      12              0.0000000000
      1277        12  CHL1      C2             -6.3230265407      -15.1281793611       16.7708701674  MEMB      12              0.0000000000
      1278        12  CHL1      H2A            -5.8127806767      -15.9704413045       17.2892143713  MEMB      12              0.0000000000
      1279        12  CHL1      H2B            -7.4186182056      -15.3064540749       16.8614368694  MEMB      12              0.0000000000
      1280        12  CHL1      C20            -4.5967427493      -13.6037720156        7.5040165165  MEMB      12              0.0000000000
      1281        12  CHL1      H20            -5.6195888705      -13.3696586641        7.1298277688  MEMB      12              0.0000000000
      1282        12  CHL1      C21            -4.3635565630      -15.1174328430        7.3667386972  MEMB      12              0.0000000000
      1283        12  CHL1      H21A           -3.3228886635      -15.3729366648        7.6549338475  MEMB      12              0.0000000000
      1284        12  CHL1      H21B           -4.5265897432      -15.4263783128        6.3110977100  MEMB      12              0.0000000000
      1285        12  CHL1      H21C           -5.0719522449      -15.6908293091        7.9950599199  MEMB      12              0.0000000000
      1286        12  CHL1      C22            -3.5737073231      -12.7826252101        6.6536672841  MEMB      12              0.0000000000
      1287        12  CHL1      H22A           -3.9216593123      -11.7274643032        6.6275571469  MEMB      12              0.0000000000
      1288        12  CHL1      H22B           -2.5790236655      -12.8118320425        7.1490960766  MEMB      12              0.0000000000
      1289        12  CHL1      C23            -3.4000434714      -13.1394253773        5.1747097685  MEMB      12              0.0000000000
      1290        12  CHL1      H23A           -2.5331137574      -12.5643428422        4.7718334964  MEMB      12              0.0000000000
      1291        12  CHL1      H23B           -3.1682618069      -14.2171324848        5.0478426347  MEMB      12              0.0000000000
      1292        12  CHL1      C24            -4.6522727365      -12.7407954721        4.3971616118  MEMB      12              0.0000000000
      1293        12  CHL1      H24A           -5.5295831624      -13.1719229128        4.9308821511  MEMB      12              0.0000000000
      1294        12  CHL1      H24B           -4.7738930689      -11.6343608682        4.3881089287  MEMB      12              0.0000000000
      1295        12  CHL1      C25            -4.6993272663      -13.2656274552        2.9640837895  MEMB      12              0.0000000000
      1296        12  CHL1      H25            -4.4550374048      -14.3563225162        2.9922064966  MEMB      12              0.0000000000
      1297        12  CHL1      C26            -6.1314666510      -13.1037425611        2.4652421618  MEMB      12              0.0000000000
      1298        12  CHL1      H26A           -6.3165064599      -12.0710848594        2.1029032948  MEMB      12              0.0000000000
      1299        12  CHL1      H26B           -6.3088999902      -13.8344598648        1.6563276775  MEMB      12              0.0000000000
      1300        12  CHL1      H26C           -6.8590779010      -13.3251415940        3.2692076851  MEMB      12              0.0000000000
      1301        12  CHL1      C27            -3.7132653948      -12.5580578264        2.0230311784  MEMB      12              0.0000000000
      1302        12  CHL1      H27A           -3.9938855897      -11.4903553310        1.9003887899  MEMB      12              0.0000000000
      1303        12  CHL1      H27B           -2.6784396219      -12.6074688258        2.4205372527  MEMB      12              0.0000000000
      1304        12  CHL1      H27C           -3.7284708593      -13.0386172208        1.0224125830  MEMB      12              0.0000000000
      1305        13  SAPC      N               9.0476085864      -11.1732064987       21.8302108617  MEMB      13              0.0000000000
      1306        13  SAPC      C12             8.4610186672      -10.3935419266       20.6561066164  MEMB      13              0.0000000000
      1307        13  SAPC      H12A            8.4069092925       -9.3500574636       20.9471883551  MEMB      13              0.0000000000
      1308        13  SAPC      H12B            7.4524141682      -10.7351131510       20.4565900196  MEMB      13              0.0000000000
      1309        13  SAPC      C13             8.2032036619      -11.0691901642       23.0581633278  MEMB      13              0.0000000000
      1310        13  SAPC      H13A            7.2290311362      -11.5161283859       22.9306908873  MEMB      13              0.0000000000
      1311        13  SAPC      H13B            8.7071039426      -11.5940915654       23.8721648469  MEMB      13              0.0000000000
      1312        13  SAPC      H13C            8.0914997611      -10.0321726568       23.3685212075  MEMB      13              0.0000000000
      1313        13  SAPC      C14             9.2280452536      -12.6129442166       21.4778020444  MEMB      13              0.0000000000
      1314        13  SAPC      H14A            8.2758795459      -13.1334069140       21.4445088795  MEMB      13              0.0000000000
      1315        13  SAPC      H14B            9.7321530435      -12.6892805362       20.5208151420  MEMB      13              0.0000000000
      1316        13  SAPC      H14C            9.8584370222      -13.1019224557       22.2158006597  MEMB      13              0.0000000000
      1317        13  SAPC      C15            10.3930904994      -10.6087188377       22.1892611985  MEMB      13              0.0000000000
      1318        13  SAPC      H15A           11.0372218408      -10.6419632399       21.3067770458  MEMB      13              0.0000000000
      1319        13  SAPC      H15B           10.3093740124       -9.5649457345       22.4568916327  MEMB      13              0.0000000000
      1320        13  SAPC      H15C           10.8758816308      -11.1543797524       22.9860998553  MEMB      13              0.0000000000
      1321        13  SAPC      C11             9.2331999800      -10.4016343531       19.3066973559  MEMB      13              0.0000000000
      1322        13  SAPC      H11A            8.7181034607       -9.7083230388       18.5975009235  MEMB      13              0.0000000000
      1323        13  SAPC      H11B            9.1599442023      -11.4120517084       18.8488537659  MEMB      13              0.0000000000
      1324        13  SAPC      P              11.8476694949      -10.6444463076       18.8484018148  MEMB      13              0.0000000000
      1325        13  SAPC      O13            12.7600929143       -9.6033308127       18.3333894009  MEMB      13              0.0000000000
      1326        13  SAPC      O14            12.4255300357      -11.5259507199       19.8855339466  MEMB      13              0.0000000000
      1327        13  SAPC      O12            10.5724529973       -9.9553099010       19.4904737384  MEMB      13              0.0000000000
      1328        13  SAPC      O11            11.2823214208      -11.6408105931       17.7077288008  MEMB      13              0.0000000000
      1329        13  SAPC      C1             11.1664171231      -13.0415314527       18.0684932242  MEMB      13              0.0000000000
      1330        13  SAPC      HA             12.1866731630      -13.4719315854       18.2290955197  MEMB      13              0.0000000000
      1331        13  SAPC      HB             10.5892116127      -13.1564217882       19.0119831039  MEMB      13              0.0000000000
      1332        13  SAPC      C2             10.4786644002      -14.0489850896       17.0664612634  MEMB      13              0.0000000000
      1333        13  SAPC      HS             10.5616494512      -15.0035130226       17.6309397080  MEMB      13              0.0000000000
      1334        13  SAPC      O21            11.1745442545      -14.0865136142       15.8160527680  MEMB      13              0.0000000000
      1335        13  SAPC      C21            11.7760320140      -15.1819111399       15.4369381182  MEMB      13              0.0000000000
      1336        13  SAPC      O22            11.9281557765      -16.1994582183       16.0914573598  MEMB      13              0.0000000000
      1337        13  SAPC      C22            12.3569626310      -14.9037664403       14.0396034329  MEMB      13              0.0000000000
      1338        13  SAPC      H2R            12.6469855987      -13.8314906475       14.0426978674  MEMB      13              0.0000000000
      1339        13  SAPC      H2S            13.2690607917      -15.5146883381       13.9406562037  MEMB      13              0.0000000000
      1340        13  SAPC      C3              8.9696901157      -13.8175064318       16.7246874165  MEMB      13              0.0000000000
      1341        13  SAPC      HX              8.4143345280      -13.4672460534       17.6172237465  MEMB      13              0.0000000000
      1342        13  SAPC      HY              8.5190735871      -14.7825997357       16.3956511375  MEMB      13              0.0000000000
      1343        13  SAPC      O31             8.8766783231      -12.8463137864       15.6864138513  MEMB      13              0.0000000000
      1344        13  SAPC      C31             8.0240832205      -12.9511428503       14.7061073366  MEMB      13              0.0000000000
      1345        13  SAPC      O32             7.1076276147      -13.7482259149       14.6038627278  MEMB      13              0.0000000000
      1346        13  SAPC      C32             8.3152436846      -11.8410085077       13.6967007542  MEMB      13              0.0000000000
      1347        13  SAPC      H2X             7.4078181439      -11.7377638209       13.0711458253  MEMB      13              0.0000000000
      1348        13  SAPC      H2Y             9.1469502749      -12.1760205269       13.0460512626  MEMB      13              0.0000000000
      1349        13  SAPC      C23            11.5081592891      -15.1466103111       12.7704754886  MEMB      13              0.0000000000
      1350        13  SAPC      H3R            10.4245729534      -15.2710267333       12.9914139021  MEMB      13              0.0000000000
      1351        13  SAPC      H3S            11.9208373758      -16.0661733796       12.3060173821  MEMB      13              0.0000000000
      1352        13  SAPC      C24            11.7082637863      -14.0265623369       11.7341528531  MEMB      13              0.0000000000
      1353        13  SAPC      H4R            12.6998196746      -13.5656161260       11.9454455603  MEMB      13              0.0000000000
      1354        13  SAPC      H4S            10.9277933017      -13.2676485813       11.9447200286  MEMB      13              0.0000000000
      1355        13  SAPC      C25            11.6990206058      -14.4102884766       10.2756394700  MEMB      13              0.0000000000
      1356        13  SAPC      H5R            12.6321080273      -14.1823106221        9.7331157794  MEMB      13              0.0000000000
      1357        13  SAPC      C26            10.6769721093      -14.9260112328        9.5733584262  MEMB      13              0.0000000000
      1358        13  SAPC      H6R            10.8446011550      -15.1283183110        8.5013219001  MEMB      13              0.0000000000
      1359        13  SAPC      C27             9.2917119704      -15.2403287886       10.0941000047  MEMB      13              0.0000000000
      1360        13  SAPC      H7R             8.8571384935      -14.3491437409       10.5889008963  MEMB      13              0.0000000000
      1361        13  SAPC      H7S             9.3373305187      -15.9921573406       10.9086414489  MEMB      13              0.0000000000
      1362        13  SAPC      C28             8.4018133734      -15.7591769823        8.9829631519  MEMB      13              0.0000000000
      1363        13  SAPC      H8R             8.5513882698      -16.8011175784        8.6884710861  MEMB      13              0.0000000000
      1364        13  SAPC      C29             7.4866852128      -15.0521880352        8.3099367687  MEMB      13              0.0000000000
      1365        13  SAPC      H9R             6.9257196570      -15.5178022735        7.4850498201  MEMB      13              0.0000000000
      1366        13  SAPC      C210            7.1978629456      -13.6042760077        8.5625415457  MEMB      13              0.0000000000
      1367        13  SAPC      H10R            7.2665425718      -13.3553149681        9.6461685690  MEMB      13              0.0000000000
      1368        13  SAPC      H10S            6.1666492049      -13.3371499030        8.2473125284  MEMB      13              0.0000000000
      1369        13  SAPC      C211            8.2214302543      -12.8669902676        7.7567407083  MEMB      13              0.0000000000
      1370        13  SAPC      H11R            8.4916715902      -13.3065030353        6.7833652593  MEMB      13              0.0000000000
      1371        13  SAPC      C212            8.7440051210      -11.6838841108        8.0670440432  MEMB      13              0.0000000000
      1372        13  SAPC      H12R            9.4136719730      -11.2284462289        7.3304704180  MEMB      13              0.0000000000
      1373        13  SAPC      C213            8.4394070783      -10.8185097345        9.2586942076  MEMB      13              0.0000000000
      1374        13  SAPC      H13R            9.1842214552      -10.9851940627       10.0597213267  MEMB      13              0.0000000000
      1375        13  SAPC      H13S            7.4903918583      -11.1244743863        9.7202202506  MEMB      13              0.0000000000
      1376        13  SAPC      C214            8.3846005272       -9.3675176364        8.8265373152  MEMB      13              0.0000000000
      1377        13  SAPC      H14R            9.1847280206       -8.7054746382        9.1741206532  MEMB      13              0.0000000000
      1378        13  SAPC      C215            7.4922513698       -8.8584610332        7.9719570911  MEMB      13              0.0000000000
      1379        13  SAPC      H15R            7.5770551838       -7.8088314856        7.6626991713  MEMB      13              0.0000000000
      1380        13  SAPC      C216            6.4137943827       -9.6843360316        7.3279744431  MEMB      13              0.0000000000
      1381        13  SAPC      H16R            5.5094383377       -9.0615440574        7.1496869822  MEMB      13              0.0000000000
      1382        13  SAPC      H16S            6.0879675745      -10.5330427689        7.9687441406  MEMB      13              0.0000000000
      1383        13  SAPC      C217            6.8693245523      -10.3446107188        6.0311243040  MEMB      13              0.0000000000
      1384        13  SAPC      H17R            6.7606717645      -11.4527555196        6.0975275069  MEMB      13              0.0000000000
      1385        13  SAPC      H17S            7.9432315630      -10.1353586580        5.8048412562  MEMB      13              0.0000000000
      1386        13  SAPC      C218            5.9789969275       -9.8466765197        4.9279268060  MEMB      13              0.0000000000
      1387        13  SAPC      H18R            6.0510643686       -8.7373776332        4.9285384650  MEMB      13              0.0000000000
      1388        13  SAPC      H18S            4.9198517974      -10.1217416333        5.1350556250  MEMB      13              0.0000000000
      1389        13  SAPC      C219            6.4182866232      -10.3798206733        3.5937966346  MEMB      13              0.0000000000
      1390        13  SAPC      H19R            5.9569111749      -11.3748645898        3.4002742954  MEMB      13              0.0000000000
      1391        13  SAPC      H19S            7.5234389683      -10.5230778586        3.6089284707  MEMB      13              0.0000000000
      1392        13  SAPC      C220            6.0479761801       -9.4015038518        2.5006601553  MEMB      13              0.0000000000
      1393        13  SAPC      H20R            5.4871947350       -9.9371677847        1.7285854747  MEMB      13              0.0000000000
      1394        13  SAPC      H20S            6.9496373872       -9.0130050738        2.0031247472  MEMB      13              0.0000000000
      1395        13  SAPC      H20T            5.4570490983       -8.5434152566        2.8881316954  MEMB      13              0.0000000000
      1396        13  SAPC      C33             8.6581453914      -10.5080349150       14.4139015683  MEMB      13              0.0000000000
      1397        13  SAPC      H3X             9.1917174063      -10.6849844870       15.3787821391  MEMB      13              0.0000000000
      1398        13  SAPC      H3Y             7.7155295676       -9.9768988783       14.6723581658  MEMB      13              0.0000000000
      1399        13  SAPC      C34             9.6014657989       -9.5476253479       13.6706826163  MEMB      13              0.0000000000
      1400        13  SAPC      H4X             9.6759266117       -8.6611513344       14.3517355604  MEMB      13              0.0000000000
      1401        13  SAPC      H4Y             9.1395095863       -9.1966444472       12.7334436402  MEMB      13              0.0000000000
      1402        13  SAPC      C35            11.0472067635      -10.0695369274       13.4830973487  MEMB      13              0.0000000000
      1403        13  SAPC      H5X            11.1813189160      -10.9914033288       14.0953972752  MEMB      13              0.0000000000
      1404        13  SAPC      H5Y            11.7279470844       -9.3102410930       13.9341471826  MEMB      13              0.0000000000
      1405        13  SAPC      C36            11.5167016446      -10.3335556311       12.0310734578  MEMB      13              0.0000000000
      1406        13  SAPC      H6X            11.0703753564      -11.2884024777       11.6908780865  MEMB      13              0.0000000000
      1407        13  SAPC      H6Y            12.6234631658      -10.4520320896       12.0388163414  MEMB      13              0.0000000000
      1408        13  SAPC      C37            11.1171187727       -9.2659696911       10.9975259621  MEMB      13              0.0000000000
      1409        13  SAPC      H7X            11.3178564009       -8.2481227141       11.3795310730  MEMB      13              0.0000000000
      1410        13  SAPC      H7Y            10.0200615522       -9.3171025629       10.8954371772  MEMB      13              0.0000000000
      1411        13  SAPC      C38            11.7396971589       -9.3974340117        9.5886492354  MEMB      13              0.0000000000
      1412        13  SAPC      H8X            12.7518096286       -8.9759815414        9.5960361984  MEMB      13              0.0000000000
      1413        13  SAPC      H8Y            11.1868411199       -8.7373891264        8.8876451030  MEMB      13              0.0000000000
      1414        13  SAPC      C39            11.8381216545      -10.8049183551        8.9806761965  MEMB      13              0.0000000000
      1415        13  SAPC      H9X            10.9714188297      -11.4212193516        9.2622845260  MEMB      13              0.0000000000
      1416        13  SAPC      H9Y            12.7026572776      -11.3437553551        9.4094084608  MEMB      13              0.0000000000
      1417        13  SAPC      C310           11.9442158505      -10.7360138703        7.4499686114  MEMB      13              0.0000000000
      1418        13  SAPC      H10X           12.8864490487      -10.2112300868        7.1839068988  MEMB      13              0.0000000000
      1419        13  SAPC      H10Y           11.1216576474      -10.1107550497        7.0355215989  MEMB      13              0.0000000000
      1420        13  SAPC      C311           11.9181827879      -12.1037873490        6.7562478914  MEMB      13              0.0000000000
      1421        13  SAPC      H11X           10.8977160596      -12.5367845758        6.7530480490  MEMB      13              0.0000000000
      1422        13  SAPC      H11Y           12.5676118565      -12.8221497394        7.3041950702  MEMB      13              0.0000000000
      1423        13  SAPC      C312           12.4136298781      -11.9783637980        5.3189430622  MEMB      13              0.0000000000
      1424        13  SAPC      H12X           13.5010315104      -12.2227712302        5.3458237401  MEMB      13              0.0000000000
      1425        13  SAPC      H12Y           12.3061985520      -10.9319621260        4.9556111320  MEMB      13              0.0000000000
      1426        13  SAPC      C313           11.7465502568      -12.9149628213        4.3181636191  MEMB      13              0.0000000000
      1427        13  SAPC      H13X           10.6793061800      -12.6661060960        4.1361969010  MEMB      13              0.0000000000
      1428        13  SAPC      H13Y           11.7737363402      -13.9387184190        4.7531269530  MEMB      13              0.0000000000
      1429        13  SAPC      C314           12.5550382612      -12.9248212391        3.0162450527  MEMB      13              0.0000000000
      1430        13  SAPC      H14X           13.6206928532      -12.7613709312        3.2890213485  MEMB      13              0.0000000000
      1431        13  SAPC      H14Y           12.2512765862      -12.0993017649        2.3367008983  MEMB      13              0.0000000000
      1432        13  SAPC      C315           12.5283645140      -14.2837328778        2.3200843286  MEMB      13              0.0000000000
      1433        13  SAPC      H15X           12.9540145242      -15.0398964537        2.9951155555  MEMB      13              0.0000000000
      1434        13  SAPC      H15Y           13.1663268858      -14.2556590923        1.4092714327  MEMB      13              0.0000000000
      1435        13  SAPC      C316           11.1317359177      -14.8119836479        2.0438515720  MEMB      13              0.0000000000
      1436        13  SAPC      H16X           10.5557321304      -14.9215669280        2.9891534416  MEMB      13              0.0000000000
      1437        13  SAPC      H16Y           11.2271057290      -15.8209640045        1.5835738505  MEMB      13              0.0000000000
      1438        13  SAPC      C317           10.3737703820      -13.8936410580        1.1190015318  MEMB      13              0.0000000000
      1439        13  SAPC      H17X           11.0986592921      -13.3956134034        0.4466967156  MEMB      13              0.0000000000
      1440        13  SAPC      H17Y            9.9109485592      -13.0890980715        1.7250572860  MEMB      13              0.0000000000
      1441        13  SAPC      C318            9.3360603396      -14.6515360239        0.3108421043  MEMB      13              0.0000000000
      1442        13  SAPC      H18X            8.9841036919      -13.9974734935       -0.5096241863  MEMB      13              0.0000000000
      1443        13  SAPC      H18Y            8.4750688200      -14.9421026511        0.9484667084  MEMB      13              0.0000000000
      1444        13  SAPC      H18Z            9.7729860932      -15.5668128075       -0.1378287708  MEMB      13              0.0000000000
      1445        14  SLPC      N             -11.9655669461        6.0831919637       18.2013185961  MEMB      14              0.0000000000
      1446        14  SLPC      C13           -12.1498391013        4.8151477887       17.4192400920  MEMB      14              0.0000000000
      1447        14  SLPC      H13A          -12.3674768792        3.9742083350       18.0682854886  MEMB      14              0.0000000000
      1448        14  SLPC      H13B          -12.9970615441        4.9445478966       16.7375413156  MEMB      14              0.0000000000
      1449        14  SLPC      H13C          -11.2698862466        4.5305546576       16.8650709952  MEMB      14              0.0000000000
      1450        14  SLPC      C14           -11.4502960287        7.1443439673       17.2747494446  MEMB      14              0.0000000000
      1451        14  SLPC      H14A          -12.1243302559        7.2117611264       16.4178197306  MEMB      14              0.0000000000
      1452        14  SLPC      H14B          -11.4448240679        8.0966855050       17.7803927876  MEMB      14              0.0000000000
      1453        14  SLPC      H14C          -10.4603983490        6.9196728520       16.9095352251  MEMB      14              0.0000000000
      1454        14  SLPC      C15           -11.0301334815        5.8063037999       19.3296540647  MEMB      14              0.0000000000
      1455        14  SLPC      H15A          -11.4304862618        5.0208907060       19.9785696599  MEMB      14              0.0000000000
      1456        14  SLPC      H15B          -10.0874946157        5.3948588552       18.9791829215  MEMB      14              0.0000000000
      1457        14  SLPC      H15C          -10.8694766493        6.6795690677       19.9345998954  MEMB      14              0.0000000000
      1458        14  SLPC      C12           -13.3064606580        6.5201492955       18.7604603823  MEMB      14              0.0000000000
      1459        14  SLPC      H12A          -13.1426215813        7.3269435383       19.4617501840  MEMB      14              0.0000000000
      1460        14  SLPC      H12B          -13.7290156648        5.6815007501       19.3061135131  MEMB      14              0.0000000000
      1461        14  SLPC      C11           -14.3763467267        6.9553512212       17.7459064877  MEMB      14              0.0000000000
      1462        14  SLPC      H11A          -13.9610537989        7.6956711019       17.0199336874  MEMB      14              0.0000000000
      1463        14  SLPC      H11B          -15.2192589276        7.4593549860       18.2650252361  MEMB      14              0.0000000000
      1464        14  SLPC      P             -15.7599668244        5.9010223119       15.8220830308  MEMB      14              0.0000000000
      1465        14  SLPC      O13           -15.0133698880        5.3146330611       14.6904397140  MEMB      14              0.0000000000
      1466        14  SLPC      O14           -17.0659976279        5.3275315075       16.1828893770  MEMB      14              0.0000000000
      1467        14  SLPC      O12           -14.8635407893        5.7860085710       17.1098110004  MEMB      14              0.0000000000
      1468        14  SLPC      O11           -15.8768241565        7.4668113932       15.6690113588  MEMB      14              0.0000000000
      1469        14  SLPC      C1            -17.0621057457        8.2621544155       15.6555949675  MEMB      14              0.0000000000
      1470        14  SLPC      HA            -17.9775086733        7.6552586852       15.8445422848  MEMB      14              0.0000000000
      1471        14  SLPC      HB            -16.9998218924        9.0228636231       16.4627595420  MEMB      14              0.0000000000
      1472        14  SLPC      C2            -17.2417705732        9.0560599279       14.3180498109  MEMB      14              0.0000000000
      1473        14  SLPC      HS            -18.1695077643        9.6737216105       14.4016691092  MEMB      14              0.0000000000
      1474        14  SLPC      O21           -17.3251907873        8.1468586038       13.2049571893  MEMB      14              0.0000000000
      1475        14  SLPC      C21           -18.4791179571        7.5129730424       13.2004557592  MEMB      14              0.0000000000
      1476        14  SLPC      O22           -19.4873745761        7.8828415285       13.7774169250  MEMB      14              0.0000000000
      1477        14  SLPC      C22           -18.4141129918        6.2455031419       12.3547113381  MEMB      14              0.0000000000
      1478        14  SLPC      H2R           -17.7357749497        5.5216291387       12.8514567708  MEMB      14              0.0000000000
      1479        14  SLPC      H2S           -19.4339280053        5.8255006365       12.3797949738  MEMB      14              0.0000000000
      1480        14  SLPC      C3            -16.1114405855       10.0810462827       14.0412530894  MEMB      14              0.0000000000
      1481        14  SLPC      HX            -16.1773099727       10.9152437321       14.7656954102  MEMB      14              0.0000000000
      1482        14  SLPC      HY            -16.3379347263       10.4904028636       13.0233412144  MEMB      14              0.0000000000
      1483        14  SLPC      O31           -14.8141424609        9.4616605140       14.1433502763  MEMB      14              0.0000000000
      1484        14  SLPC      C31           -14.0016917100        9.7416734618       13.1588836769  MEMB      14              0.0000000000
      1485        14  SLPC      O32           -14.0896599755       10.6887796058       12.4035977410  MEMB      14              0.0000000000
      1486        14  SLPC      C32           -12.9350423204        8.6745426702       13.0532726360  MEMB      14              0.0000000000
      1487        14  SLPC      H2X           -13.4138715015        7.6753772551       13.1474287747  MEMB      14              0.0000000000
      1488        14  SLPC      H2Y           -12.2230899770        8.8118485571       13.8919448347  MEMB      14              0.0000000000
      1489        14  SLPC      C23           -18.0392084418        6.4548761682       10.8772073222  MEMB      14              0.0000000000
      1490        14  SLPC      H3R           -18.5775556220        7.3227821399       10.4395394166  MEMB      14              0.0000000000
      1491        14  SLPC      H3S           -18.3549696483        5.5464050893       10.3116068166  MEMB      14              0.0000000000
      1492        14  SLPC      C24           -16.5306509431        6.5841991148       10.6920174971  MEMB      14              0.0000000000
      1493        14  SLPC      H4R           -16.0256528456        5.8316290659       11.3435563119  MEMB      14              0.0000000000
      1494        14  SLPC      H4S           -16.1869946228        7.5857176373       11.0300644078  MEMB      14              0.0000000000
      1495        14  SLPC      C25           -16.1023418435        6.3340179731        9.2463267565  MEMB      14              0.0000000000
      1496        14  SLPC      H5R           -16.3308138373        5.2738645252        8.9989822075  MEMB      14              0.0000000000
      1497        14  SLPC      H5S           -14.9999147824        6.4422361490        9.1947554532  MEMB      14              0.0000000000
      1498        14  SLPC      C26           -16.7873944648        7.2303336023        8.2003938072  MEMB      14              0.0000000000
      1499        14  SLPC      H6R           -17.8681770504        6.9755997338        8.1502037504  MEMB      14              0.0000000000
      1500        14  SLPC      H6S           -16.3426283694        6.9695097836        7.2125930588  MEMB      14              0.0000000000
      1501        14  SLPC      C27           -16.6466199668        8.7500965528        8.4211899322  MEMB      14              0.0000000000
      1502        14  SLPC      H7R           -15.5749306150        9.0354283995        8.3869007133  MEMB      14              0.0000000000
      1503        14  SLPC      H7S           -17.0140137210        9.0182364720        9.4367462606  MEMB      14              0.0000000000
      1504        14  SLPC      C28           -17.4199219646        9.6118878731        7.3912343458  MEMB      14              0.0000000000
      1505        14  SLPC      H8R           -17.0028515984       10.6439561797        7.4178418839  MEMB      14              0.0000000000
      1506        14  SLPC      H8S           -18.4602132496        9.6690556410        7.7593043961  MEMB      14              0.0000000000
      1507        14  SLPC      C29           -17.4768675328        9.0403463191        5.9977480099  MEMB      14              0.0000000000
      1508        14  SLPC      H9R           -17.8235765481        7.9982424162        5.9610397883  MEMB      14              0.0000000000
      1509        14  SLPC      C210          -17.2557324446        9.6569363250        4.8267962605  MEMB      14              0.0000000000
      1510        14  SLPC      H10R          -17.3531707404        9.0630665813        3.9052162275  MEMB      14              0.0000000000
      1511        14  SLPC      C211          -16.8912722550       11.0975230526        4.5913346524  MEMB      14              0.0000000000
      1512        14  SLPC      H11R          -16.9307742182       11.7082532803        5.5183341461  MEMB      14              0.0000000000
      1513        14  SLPC      H11S          -17.6312960606       11.5587847872        3.9020966089  MEMB      14              0.0000000000
      1514        14  SLPC      C212          -15.5243245371       11.1697555356        3.9847589309  MEMB      14              0.0000000000
      1515        14  SLPC      H12R          -14.7046892952       11.1328527726        4.7127453433  MEMB      14              0.0000000000
      1516        14  SLPC      C213          -15.2272211121       11.2171026187        2.6769085490  MEMB      14              0.0000000000
      1517        14  SLPC      H13R          -14.1709854138       11.2855586690        2.3890767456  MEMB      14              0.0000000000
      1518        14  SLPC      C214          -16.1968382235       11.2052312930        1.5254934867  MEMB      14              0.0000000000
      1519        14  SLPC      H14R          -16.2845215746       12.2249130826        1.0899382868  MEMB      14              0.0000000000
      1520        14  SLPC      H14S          -17.2149277224       10.9012793345        1.8566232853  MEMB      14              0.0000000000
      1521        14  SLPC      C215          -15.7415364683       10.2245650063        0.4249264170  MEMB      14              0.0000000000
      1522        14  SLPC      H15R          -16.5087207766       10.2250087369       -0.3815690179  MEMB      14              0.0000000000
      1523        14  SLPC      H15S          -15.7046899116        9.1947696541        0.8474953039  MEMB      14              0.0000000000
      1524        14  SLPC      C216          -14.3779133155       10.5864249430       -0.1927963294  MEMB      14              0.0000000000
      1525        14  SLPC      H16R          -13.5878488912       10.5480657410        0.5910384315  MEMB      14              0.0000000000
      1526        14  SLPC      H16S          -14.4217973205       11.6302224005       -0.5747951960  MEMB      14              0.0000000000
      1527        14  SLPC      C217          -13.9230370190        9.6504791607       -1.3190128057  MEMB      14              0.0000000000
      1528        14  SLPC      H17R          -13.0271997064       10.1086100697       -1.7993266679  MEMB      14              0.0000000000
      1529        14  SLPC      H17S          -14.7122837482        9.5552035913       -2.0948281623  MEMB      14              0.0000000000
      1530        14  SLPC      C218          -13.5164223952        8.2800773604       -0.7972011809  MEMB      14              0.0000000000
      1531        14  SLPC      H18R          -13.0796133145        7.6417836912       -1.5934700473  MEMB      14              0.0000000000
      1532        14  SLPC      H18S          -14.3744091578        7.7440324534       -0.3348550740  MEMB      14              0.0000000000
      1533        14  SLPC      H18T          -12.7423855376        8.4336721423       -0.0201604092  MEMB      14              0.0000000000
      1534        14  SLPC      C33           -12.2198288337        8.8326569696       11.6965533745  MEMB      14              0.0000000000
      1535        14  SLPC      H3X           -11.4580697072        8.0234236330       11.6280444507  MEMB      14              0.0000000000
      1536        14  SLPC      H3Y           -11.6765377799        9.8052609185       11.6536316417  MEMB      14              0.0000000000
      1537        14  SLPC      C34           -13.1593562581        8.7420292858       10.4717933872  MEMB      14              0.0000000000
      1538        14  SLPC      H4X           -13.8192896233        9.6289084540       10.3644090969  MEMB      14              0.0000000000
      1539        14  SLPC      H4Y           -13.8059496428        7.8434876878       10.5758862598  MEMB      14              0.0000000000
      1540        14  SLPC      C35           -12.3171460889        8.6284826514        9.2174904087  MEMB      14              0.0000000000
      1541        14  SLPC      H5X           -11.7317118733        7.7178476959        9.4359795787  MEMB      14              0.0000000000
      1542        14  SLPC      H5Y           -11.6201567953        9.4879732459        9.1205596739  MEMB      14              0.0000000000
      1543        14  SLPC      C36           -13.0213994662        8.3395427163        7.8975347872  MEMB      14              0.0000000000
      1544        14  SLPC      H6X           -13.3324633109        9.2785390828        7.3897852153  MEMB      14              0.0000000000
      1545        14  SLPC      H6Y           -13.9317420915        7.7437823648        8.0873051178  MEMB      14              0.0000000000
      1546        14  SLPC      C37           -12.0774437632        7.5145290364        7.0217958582  MEMB      14              0.0000000000
      1547        14  SLPC      H7X           -11.4057841154        6.8972309587        7.6619555205  MEMB      14              0.0000000000
      1548        14  SLPC      H7Y           -11.4251220215        8.2133454438        6.4509408801  MEMB      14              0.0000000000
      1549        14  SLPC      C38           -12.7453451325        6.5178901430        6.0803941307  MEMB      14              0.0000000000
      1550        14  SLPC      H8X           -11.9000682680        6.0466819891        5.5236453017  MEMB      14              0.0000000000
      1551        14  SLPC      H8Y           -13.3910728559        7.0641870585        5.3591940727  MEMB      14              0.0000000000
      1552        14  SLPC      C39           -13.5462588428        5.3706824329        6.7273251871  MEMB      14              0.0000000000
      1553        14  SLPC      H9X           -14.5155802755        5.7654130328        7.0917611078  MEMB      14              0.0000000000
      1554        14  SLPC      H9Y           -12.9934332332        4.9552259767        7.5983244118  MEMB      14              0.0000000000
      1555        14  SLPC      C310          -13.8011849599        4.2754908858        5.6772493976  MEMB      14              0.0000000000
      1556        14  SLPC      H10X          -12.8123038123        3.8712393535        5.3598145723  MEMB      14              0.0000000000
      1557        14  SLPC      H10Y          -14.2465230661        4.7695767179        4.7858100076  MEMB      14              0.0000000000
      1558        14  SLPC      C311          -14.6943416536        3.0835701569        6.0754017053  MEMB      14              0.0000000000
      1559        14  SLPC      H11X          -14.2087582432        2.4878038825        6.8780405693  MEMB      14              0.0000000000
      1560        14  SLPC      H11Y          -14.7712376242        2.4403251134        5.1676640792  MEMB      14              0.0000000000
      1561        14  SLPC      C312          -16.1583613841        3.3946539389        6.4181829371  MEMB      14              0.0000000000
      1562        14  SLPC      H12X          -16.2126964197        4.0762511979        7.2889554135  MEMB      14              0.0000000000
      1563        14  SLPC      H12Y          -16.6478040719        2.4363222021        6.7140494813  MEMB      14              0.0000000000
      1564        14  SLPC      C313          -16.8874821105        3.9865867095        5.1988701004  MEMB      14              0.0000000000
      1565        14  SLPC      H13X          -16.8592730754        3.2302601532        4.3799485167  MEMB      14              0.0000000000
      1566        14  SLPC      H13Y          -16.3490447970        4.8964319552        4.8643731320  MEMB      14              0.0000000000
      1567        14  SLPC      C314          -18.3523332913        4.3546076028        5.4347406372  MEMB      14              0.0000000000
      1568        14  SLPC      H14X          -18.4427884335        5.0874344277        6.2682366283  MEMB      14              0.0000000000
      1569        14  SLPC      H14Y          -18.8322311051        3.4051268964        5.7244264181  MEMB      14              0.0000000000
      1570        14  SLPC      C315          -19.1005806809        4.8713964476        4.1937601797  MEMB      14              0.0000000000
      1571        14  SLPC      H15X          -20.1310344347        5.1765273814        4.4924321474  MEMB      14              0.0000000000
      1572        14  SLPC      H15Y          -19.2132462333        4.0296709912        3.4720650462  MEMB      14              0.0000000000
      1573        14  SLPC      C316          -18.3947344700        6.0423135123        3.4902835032  MEMB      14              0.0000000000
      1574        14  SLPC      H16X          -17.4216699176        5.6903997793        3.0814928379  MEMB      14              0.0000000000
      1575        14  SLPC      H16Y          -18.1901291315        6.8434721577        4.2294089736  MEMB      14              0.0000000000
      1576        14  SLPC      C317          -19.2331140665        6.6144484494        2.3450922965  MEMB      14              0.0000000000
      1577        14  SLPC      H17X          -20.1473177612        7.0753213819        2.7830431997  MEMB      14              0.0000000000
      1578        14  SLPC      H17Y          -19.5477841736        5.7441110662        1.7280406443  MEMB      14              0.0000000000
      1579        14  SLPC      C318          -18.5397502683        7.6444977790        1.4423780614  MEMB      14              0.0000000000
      1580        14  SLPC      H18X          -17.6991305302        7.1832277450        0.8839853377  MEMB      14              0.0000000000
      1581        14  SLPC      H18Y          -18.1436226335        8.4973911432        2.0298342871  MEMB      14              0.0000000000
      1582        14  SLPC      H18Z          -19.2577801645        8.0602095420        0.7006227064  MEMB      14              0.0000000000
      1583        15  POPC      N              14.6896073648        2.6721296430       20.9109352929  MEMB      15              0.0000000000
      1584        15  POPC      C12            14.7296628227        4.1892288969       20.7466347532  MEMB      15              0.0000000000
      1585        15  POPC      H12A           15.1312143692        4.6365401782       21.6472744717  MEMB      15              0.0000000000
      1586        15  POPC      H12B           13.7181308114        4.5580108649       20.6005980522  MEMB      15              0.0000000000
      1587        15  POPC      C13            14.1837005170        2.3239337087       22.2659114231  MEMB      15              0.0000000000
      1588        15  POPC      H13A           13.2554980217        2.8375243091       22.5039323621  MEMB      15              0.0000000000
      1589        15  POPC      H13B           14.0216999098        1.2626900967       22.3861756806  MEMB      15              0.0000000000
      1590        15  POPC      H13C           14.8955102863        2.6401630454       23.0172324450  MEMB      15              0.0000000000
      1591        15  POPC      C14            13.8316241574        2.1227973190       19.8073906413  MEMB      15              0.0000000000
      1592        15  POPC      H14A           12.8685400100        2.6183170687       19.7909147233  MEMB      15              0.0000000000
      1593        15  POPC      H14B           14.2700837394        2.4305702503       18.8463715630  MEMB      15              0.0000000000
      1594        15  POPC      H14C           13.7323603359        1.0507363395       19.8233354972  MEMB      15              0.0000000000
      1595        15  POPC      C15            16.0908510743        2.1821714059       20.7369791095  MEMB      15              0.0000000000
      1596        15  POPC      H15A           16.7931358941        2.8267719400       21.2690223578  MEMB      15              0.0000000000
      1597        15  POPC      H15B           16.3654270427        2.3196262445       19.6876047872  MEMB      15              0.0000000000
      1598        15  POPC      H15C           16.2153571994        1.1512369054       21.0192414005  MEMB      15              0.0000000000
      1599        15  POPC      C11            15.5496073308        4.7473592846       19.5619379996  MEMB      15              0.0000000000
      1600        15  POPC      H11A           16.6380329711        4.5417600125       19.6763033100  MEMB      15              0.0000000000
      1601        15  POPC      H11B           15.4270697535        5.8585541732       19.6153560548  MEMB      15              0.0000000000
      1602        15  POPC      P              15.2971736778        5.0988052215       17.0113762938  MEMB      15              0.0000000000
      1603        15  POPC      O13            16.2755726741        6.1674985463       17.3298422816  MEMB      15              0.0000000000
      1604        15  POPC      O14            13.9700582533        5.5628708110       16.5594595542  MEMB      15              0.0000000000
      1605        15  POPC      O12            15.0819529370        4.2055513225       18.3257439839  MEMB      15              0.0000000000
      1606        15  POPC      O11            15.9265242652        4.0489322752       15.9838349947  MEMB      15              0.0000000000
      1607        15  POPC      C1             16.0493109051        2.6640924451       16.3359472027  MEMB      15              0.0000000000
      1608        15  POPC      HA             15.0526469544        2.2492040204       16.5997072159  MEMB      15              0.0000000000
      1609        15  POPC      HB             16.7165072621        2.5699980999       17.2286331074  MEMB      15              0.0000000000
      1610        15  POPC      C2             16.6835255108        1.7285743749       15.2232772579  MEMB      15              0.0000000000
      1611        15  POPC      HS             17.1229234283        0.8670125478       15.7823304919  MEMB      15              0.0000000000
      1612        15  POPC      O21            17.7022516071        2.3189288825       14.4019970293  MEMB      15              0.0000000000
      1613        15  POPC      C21            18.3891463252        3.2669517737       15.0010302808  MEMB      15              0.0000000000
      1614        15  POPC      O22            18.9146398422        3.1277400753       16.0951551538  MEMB      15              0.0000000000
      1615        15  POPC      C22            18.3645174873        4.5154600741       14.0796770989  MEMB      15              0.0000000000
      1616        15  POPC      H2R            19.3490728276        4.5563336253       13.5811062435  MEMB      15              0.0000000000
      1617        15  POPC      H2S            18.2976125049        5.3904242596       14.7553356134  MEMB      15              0.0000000000
      1618        15  POPC      C3             15.6611798825        1.1301896084       14.2125941681  MEMB      15              0.0000000000
      1619        15  POPC      HX             14.7974513142        0.7081752232       14.7672506190  MEMB      15              0.0000000000
      1620        15  POPC      HY             16.1860671643        0.2761878132       13.7176856156  MEMB      15              0.0000000000
      1621        15  POPC      O31            15.2849497124        2.0934243943       13.1983421946  MEMB      15              0.0000000000
      1622        15  POPC      C31            14.0129761489        2.4814800599       13.1318436546  MEMB      15              0.0000000000
      1623        15  POPC      O32            13.0844695466        1.9814618601       13.7359339732  MEMB      15              0.0000000000
      1624        15  POPC      C32            13.8791709803        3.5669542264       12.0612645892  MEMB      15              0.0000000000
      1625        15  POPC      H2X            14.8174276170        4.1540358693       12.0199869856  MEMB      15              0.0000000000
      1626        15  POPC      H2Y            13.0635414581        4.2485498153       12.3681304746  MEMB      15              0.0000000000
      1627        15  POPC      C23            17.2064671273        4.5824233529       13.0130107738  MEMB      15              0.0000000000
      1628        15  POPC      H3R            16.2670144962        4.8317277820       13.5602293774  MEMB      15              0.0000000000
      1629        15  POPC      H3S            17.0646762586        3.5861389114       12.5478590715  MEMB      15              0.0000000000
      1630        15  POPC      C24            17.4695188281        5.5947703688       11.8674176460  MEMB      15              0.0000000000
      1631        15  POPC      H4R            18.5654899696        5.7293050074       11.7931492669  MEMB      15              0.0000000000
      1632        15  POPC      H4S            17.0545106071        6.5674340454       12.2149259603  MEMB      15              0.0000000000
      1633        15  POPC      C25            16.9222601136        5.3621874451       10.4219262862  MEMB      15              0.0000000000
      1634        15  POPC      H5R            17.4311526432        6.0681598208        9.7370780510  MEMB      15              0.0000000000
      1635        15  POPC      H5S            15.8779351148        5.7173320550       10.4294017325  MEMB      15              0.0000000000
      1636        15  POPC      C26            17.1111104834        4.0190552527        9.6696728695  MEMB      15              0.0000000000
      1637        15  POPC      H6R            16.5816995355        3.1892863142       10.1801395819  MEMB      15              0.0000000000
      1638        15  POPC      H6S            18.1828622953        3.7665336651        9.6216440009  MEMB      15              0.0000000000
      1639        15  POPC      C27            16.6759401612        4.0904511243        8.1804045973  MEMB      15              0.0000000000
      1640        15  POPC      H7R            17.3751354456        4.6898746774        7.5721483781  MEMB      15              0.0000000000
      1641        15  POPC      H7S            15.7457235130        4.6691094708        8.1176565369  MEMB      15              0.0000000000
      1642        15  POPC      C28            16.4708825157        2.7269132007        7.4936095110  MEMB      15              0.0000000000
      1643        15  POPC      H8R            16.0080240682        2.8979740326        6.4944063941  MEMB      15              0.0000000000
      1644        15  POPC      H8S            15.7406618251        2.1269849989        8.0761561768  MEMB      15              0.0000000000
      1645        15  POPC      C29            17.7757183074        1.9891171621        7.3834497716  MEMB      15              0.0000000000
      1646        15  POPC      H91            18.1204606861        1.5303845442        8.3256915535  MEMB      15              0.0000000000
      1647        15  POPC      C210           18.5370397449        1.8877666245        6.2778824828  MEMB      15              0.0000000000
      1648        15  POPC      H101           19.5043409666        1.3695449394        6.3645303180  MEMB      15              0.0000000000
      1649        15  POPC      C211           18.2535724168        2.4893568170        4.9184768211  MEMB      15              0.0000000000
      1650        15  POPC      H11R           19.1937549652        2.9350375316        4.5243723815  MEMB      15              0.0000000000
      1651        15  POPC      H11S           17.5293890010        3.3326750568        5.0003377481  MEMB      15              0.0000000000
      1652        15  POPC      C212           17.7259847641        1.5243755507        3.8352949058  MEMB      15              0.0000000000
      1653        15  POPC      H12R           18.3075687618        0.5789958129        3.8448632615  MEMB      15              0.0000000000
      1654        15  POPC      H12S           17.8813791368        1.9997173119        2.8389893345  MEMB      15              0.0000000000
      1655        15  POPC      C213           16.2300007179        1.2533051940        4.0046709475  MEMB      15              0.0000000000
      1656        15  POPC      H13R           15.6691377735        2.2124812818        3.9295940743  MEMB      15              0.0000000000
      1657        15  POPC      H13S           16.0593571555        0.8589900208        5.0361350231  MEMB      15              0.0000000000
      1658        15  POPC      C214           15.6006415703        0.2385123928        3.0402050883  MEMB      15              0.0000000000
      1659        15  POPC      H14R           14.5070992886        0.3596736488        3.1969465293  MEMB      15              0.0000000000
      1660        15  POPC      H14S           15.8867188345       -0.7919863330        3.3490143397  MEMB      15              0.0000000000
      1661        15  POPC      C215           15.8091509166        0.3561215536        1.5202304009  MEMB      15              0.0000000000
      1662        15  POPC      H15R           16.8875138609        0.2607247722        1.2763550343  MEMB      15              0.0000000000
      1663        15  POPC      H15S           15.4762370442        1.3587032577        1.1802631139  MEMB      15              0.0000000000
      1664        15  POPC      C216           14.9918017706       -0.7820173001        0.8631806969  MEMB      15              0.0000000000
      1665        15  POPC      H16R           14.2056249131       -1.0744315296        1.5905124505  MEMB      15              0.0000000000
      1666        15  POPC      H16S           15.6153222735       -1.6908800349        0.7599619786  MEMB      15              0.0000000000
      1667        15  POPC      C217           14.2116189676       -0.5162117375       -0.4341151533  MEMB      15              0.0000000000
      1668        15  POPC      H17R           13.4194041399       -1.3038072173       -0.4803036711  MEMB      15              0.0000000000
      1669        15  POPC      H17S           14.8553291712       -0.6844306251       -1.3207358326  MEMB      15              0.0000000000
      1670        15  POPC      C218           13.4932285476        0.8269490635       -0.5113907165  MEMB      15              0.0000000000
      1671        15  POPC      H18R           12.6620534216        0.7685746857       -1.2441384159  MEMB      15              0.0000000000
      1672        15  POPC      H18S           14.1375492361        1.6604962866       -0.8180870177  MEMB      15              0.0000000000
      1673        15  POPC      H18T           13.1158739619        1.1144000258        0.4874896961  MEMB      15              0.0000000000
      1674        15  POPC      C33            13.5816271512        2.9399715296       10.6745416477  MEMB      15              0.0000000000
      1675        15  POPC      H3X            12.5795997886        2.4667280940       10.6497834899  MEMB      15              0.0000000000
      1676        15  POPC      H3Y            14.3471501567        2.1434666268       10.4974538090  MEMB      15              0.0000000000
      1677        15  POPC      C34            13.7284465765        3.9289761299        9.5156141286  MEMB      15              0.0000000000
      1678        15  POPC      H4X            13.9609118899        3.3872264711        8.5722733923  MEMB      15              0.0000000000
      1679        15  POPC      H4Y            14.5872845471        4.5533645336        9.7646944873  MEMB      15              0.0000000000
      1680        15  POPC      C35            12.5904713299        4.9115957701        9.2604103406  MEMB      15              0.0000000000
      1681        15  POPC      H5X            12.1286169739        5.2055401645       10.2266256360  MEMB      15              0.0000000000
      1682        15  POPC      H5Y            11.8508611307        4.3663199878        8.6422587896  MEMB      15              0.0000000000
      1683        15  POPC      C36            13.0252802521        6.1575883357        8.4611945380  MEMB      15              0.0000000000
      1684        15  POPC      H6X            13.9062114953        6.6391420121        8.9394079445  MEMB      15              0.0000000000
      1685        15  POPC      H6Y            12.1924586321        6.8962790194        8.4812877439  MEMB      15              0.0000000000
      1686        15  POPC      C37            13.3398631362        5.7745702278        7.0045985612  MEMB      15              0.0000000000
      1687        15  POPC      H7X            12.4882042623        5.1718166365        6.6225211923  MEMB      15              0.0000000000
      1688        15  POPC      H7Y            14.2212367153        5.1099766731        6.9763596117  MEMB      15              0.0000000000
      1689        15  POPC      C38            13.5852066864        6.9301609797        6.0270800702  MEMB      15              0.0000000000
      1690        15  POPC      H8X            14.4869741878        7.5037329948        6.3341050065  MEMB      15              0.0000000000
      1691        15  POPC      H8Y            12.7226534539        7.6299560687        6.0816231828  MEMB      15              0.0000000000
      1692        15  POPC      C39            13.7314352519        6.4386757871        4.5675900390  MEMB      15              0.0000000000
      1693        15  POPC      H9X            14.0364532797        7.2972255811        3.9307738315  MEMB      15              0.0000000000
      1694        15  POPC      H9Y            12.7305235291        6.0994747205        4.2147439185  MEMB      15              0.0000000000
      1695        15  POPC      C310           14.7213488735        5.2721848281        4.3443554668  MEMB      15              0.0000000000
      1696        15  POPC      H10X           14.3053419618        4.3527836989        4.8179248509  MEMB      15              0.0000000000
      1697        15  POPC      H10Y           15.6792134694        5.4996214284        4.8608018941  MEMB      15              0.0000000000
      1698        15  POPC      C311           14.9844238819        4.9788452855        2.8472021910  MEMB      15              0.0000000000
      1699        15  POPC      H11X           14.4571392334        5.7442408313        2.2378108627  MEMB      15              0.0000000000
      1700        15  POPC      H11Y           14.5473142910        3.9882232661        2.5898829638  MEMB      15              0.0000000000
      1701        15  POPC      C312           16.4696376369        4.9567225208        2.4310662507  MEMB      15              0.0000000000
      1702        15  POPC      H12X           16.9687157515        4.1032359767        2.9354295917  MEMB      15              0.0000000000
      1703        15  POPC      H12Y           16.9709526082        5.8889153447        2.7713817710  MEMB      15              0.0000000000
      1704        15  POPC      C313           16.6970471051        4.7875611912        0.9150327794  MEMB      15              0.0000000000
      1705        15  POPC      H13X           16.2807191056        5.6766561390        0.3931102685  MEMB      15              0.0000000000
      1706        15  POPC      H13Y           16.1496521984        3.8932710172        0.5480753814  MEMB      15              0.0000000000
      1707        15  POPC      C314           18.1915037480        4.6584481751        0.5595636900  MEMB      15              0.0000000000
      1708        15  POPC      H14X           18.6666319164        3.8851274387        1.1989752062  MEMB      15              0.0000000000
      1709        15  POPC      H14Y           18.6437039615        5.6275079719        0.8316358707  MEMB      15              0.0000000000
      1710        15  POPC      C315           18.5221495691        4.3457133988       -0.9119708081  MEMB      15              0.0000000000
      1711        15  POPC      H15X           18.4972714175        3.2430099780       -1.0620784765  MEMB      15              0.0000000000
      1712        15  POPC      H15Y           19.5607524526        4.6831497014       -1.1381601352  MEMB      15              0.0000000000
      1713        15  POPC      C316           17.5800369748        5.0243976079       -1.8966967572  MEMB      15              0.0000000000
      1714        15  POPC      H16X           17.6210701470        6.1141915726       -1.7234429212  MEMB      15              0.0000000000
      1715        15  POPC      H16Y           16.5447082686        4.6647155287       -1.7422738999  MEMB      15              0.0000000000
      1716        15  POPC      H16Z           17.8394617558        4.8196404185       -2.9560921467  MEMB      15              0.0000000000
      1717        16  SOPE      N              -6.4614632744       15.4235844545       20.2073025120  MEMB      16              0.0000000000
      1718        16  SOPE      HN1            -6.4519143212       16.3932354771       20.5763664416  MEMB      16              0.0000000000
      1719        16  SOPE      HN2            -5.9011837615       15.3754274789       19.3212034119  MEMB      16              0.0000000000
      1720        16  SOPE      HN3            -7.4503103172       15.1476953080       19.9735283368  MEMB      16              0.0000000000
      1721        16  SOPE      C12            -5.9816843647       14.4465089754       21.2448303831  MEMB      16              0.0000000000
      1722        16  SOPE      H12A           -6.2920001773       13.4349658790       20.9042991160  MEMB      16              0.0000000000
      1723        16  SOPE      H12B           -6.5145107324       14.6942075396       22.1890168246  MEMB      16              0.0000000000
      1724        16  SOPE      C11            -4.4550918229       14.4715751072       21.4433415040  MEMB      16              0.0000000000
      1725        16  SOPE      H11A           -3.9998950989       13.8566976004       20.6243381276  MEMB      16              0.0000000000
      1726        16  SOPE      H11B           -4.2219075929       13.9494700712       22.4037404072  MEMB      16              0.0000000000
      1727        16  SOPE      P              -2.3916463265       16.0095473515       21.1537933052  MEMB      16              0.0000000000
      1728        16  SOPE      O13            -1.6018360349       15.1738727171       22.0834937766  MEMB      16              0.0000000000
      1729        16  SOPE      O14            -2.0106912247       17.4312588202       21.1074927569  MEMB      16              0.0000000000
      1730        16  SOPE      O12            -3.9458191420       15.8142790714       21.4770723209  MEMB      16              0.0000000000
      1731        16  SOPE      O11            -2.2697692770       15.3988660676       19.7025564586  MEMB      16              0.0000000000
      1732        16  SOPE      C1             -2.5075387347       16.2419073012       18.5775688013  MEMB      16              0.0000000000
      1733        16  SOPE      HA             -1.7354277569       17.0448759801       18.5243050895  MEMB      16              0.0000000000
      1734        16  SOPE      HB             -3.4969954532       16.7485666279       18.6308462225  MEMB      16              0.0000000000
      1735        16  SOPE      C2             -2.4006590539       15.4187962515       17.2652222741  MEMB      16              0.0000000000
      1736        16  SOPE      HS             -2.7778436982       16.0510962492       16.4268884244  MEMB      16              0.0000000000
      1737        16  SOPE      O21            -3.0938787167       14.1467369830       17.2571601763  MEMB      16              0.0000000000
      1738        16  SOPE      C21            -4.3800900643       14.1449689691       17.5406905799  MEMB      16              0.0000000000
      1739        16  SOPE      O22            -5.0212919765       15.0855161278       17.9765113909  MEMB      16              0.0000000000
      1740        16  SOPE      C22            -5.0736290336       12.8130386614       17.2417389369  MEMB      16              0.0000000000
      1741        16  SOPE      H2R            -6.0898724398       13.0629625230       16.8725674885  MEMB      16              0.0000000000
      1742        16  SOPE      H2S            -5.1876855665       12.2817868974       18.2096982945  MEMB      16              0.0000000000
      1743        16  SOPE      C3             -0.9007514676       15.1463121520       16.9930121421  MEMB      16              0.0000000000
      1744        16  SOPE      HX             -0.4763953026       14.6781184495       17.9110001463  MEMB      16              0.0000000000
      1745        16  SOPE      HY             -0.3652950701       16.1142801245       16.8546152570  MEMB      16              0.0000000000
      1746        16  SOPE      O31            -0.7295094710       14.2448764638       15.8830426691  MEMB      16              0.0000000000
      1747        16  SOPE      C31            -0.8250592217       14.8313265374       14.6969090677  MEMB      16              0.0000000000
      1748        16  SOPE      O32            -0.8683910894       16.0334865861       14.5015369589  MEMB      16              0.0000000000
      1749        16  SOPE      C32            -0.7972550930       13.7567386840       13.6131849301  MEMB      16              0.0000000000
      1750        16  SOPE      H2X            -1.5881531122       13.0131263068       13.8302952825  MEMB      16              0.0000000000
      1751        16  SOPE      H2Y             0.1853416906       13.2472559221       13.6969994543  MEMB      16              0.0000000000
      1752        16  SOPE      C23            -4.3958360477       11.8200094987       16.2659839086  MEMB      16              0.0000000000
      1753        16  SOPE      H3R            -5.0771557574       10.9445964415       16.1348665216  MEMB      16              0.0000000000
      1754        16  SOPE      H3S            -3.4644010113       11.4333698796       16.7391704081  MEMB      16              0.0000000000
      1755        16  SOPE      C24            -4.0276830257       12.3338125565       14.8677678545  MEMB      16              0.0000000000
      1756        16  SOPE      H4R            -3.4641742896       13.2862776043       14.9346452273  MEMB      16              0.0000000000
      1757        16  SOPE      H4S            -3.3313882044       11.5707618056       14.4497059760  MEMB      16              0.0000000000
      1758        16  SOPE      C25            -5.1969454961       12.4993311209       13.8890408698  MEMB      16              0.0000000000
      1759        16  SOPE      H5R            -6.0418122520       11.8268299744       14.1538373996  MEMB      16              0.0000000000
      1760        16  SOPE      H5S            -5.5506241934       13.5456428480       13.9791845629  MEMB      16              0.0000000000
      1761        16  SOPE      C26            -4.7930551688       12.2547646798       12.4277879414  MEMB      16              0.0000000000
      1762        16  SOPE      H6R            -5.6113919056       12.6059255396       11.7602778073  MEMB      16              0.0000000000
      1763        16  SOPE      H6S            -3.8889293906       12.8648147160       12.2058788017  MEMB      16              0.0000000000
      1764        16  SOPE      C27            -4.5024471486       10.7786603558       12.1110010438  MEMB      16              0.0000000000
      1765        16  SOPE      H7R            -3.7632667302       10.3862139753       12.8451451882  MEMB      16              0.0000000000
      1766        16  SOPE      H7S            -5.4332133658       10.1870116897       12.2516566778  MEMB      16              0.0000000000
      1767        16  SOPE      C28            -3.9250379250       10.5668962257       10.7005807089  MEMB      16              0.0000000000
      1768        16  SOPE      H8R            -3.2809371848       11.4356999300       10.4508459005  MEMB      16              0.0000000000
      1769        16  SOPE      H8S            -3.2526274511        9.6795012455       10.7259635892  MEMB      16              0.0000000000
      1770        16  SOPE      C29            -5.0120844378       10.3571879052        9.6790252286  MEMB      16              0.0000000000
      1771        16  SOPE      H91            -5.3748348091        9.3192647816        9.6074044949  MEMB      16              0.0000000000
      1772        16  SOPE      C210           -5.5882941691       11.2959114972        8.9069701213  MEMB      16              0.0000000000
      1773        16  SOPE      H101           -6.3827215208       10.9809104465        8.2142216890  MEMB      16              0.0000000000
      1774        16  SOPE      C211           -5.2780230460       12.7741321559        8.8861985950  MEMB      16              0.0000000000
      1775        16  SOPE      H11R           -4.4304718613       13.0321100145        9.5616174288  MEMB      16              0.0000000000
      1776        16  SOPE      H11S           -6.1573640932       13.3510536907        9.2500797396  MEMB      16              0.0000000000
      1777        16  SOPE      C212           -4.9222148548       13.2747820679        7.4733292410  MEMB      16              0.0000000000
      1778        16  SOPE      H12R           -5.7643514510       13.0724763630        6.7741881052  MEMB      16              0.0000000000
      1779        16  SOPE      H12S           -4.0311843269       12.7144890415        7.1107187699  MEMB      16              0.0000000000
      1780        16  SOPE      C213           -4.6136445942       14.7815489508        7.4526173624  MEMB      16              0.0000000000
      1781        16  SOPE      H13R           -3.8510324748       14.9989026583        8.2355389620  MEMB      16              0.0000000000
      1782        16  SOPE      H13S           -5.5398159074       15.3372878700        7.7213793411  MEMB      16              0.0000000000
      1783        16  SOPE      C214           -4.0871617058       15.2996081042        6.1014044868  MEMB      16              0.0000000000
      1784        16  SOPE      H14R           -4.0205265088       16.4101595522        6.1587892018  MEMB      16              0.0000000000
      1785        16  SOPE      H14S           -4.8044592557       15.0472248106        5.2906695978  MEMB      16              0.0000000000
      1786        16  SOPE      C215           -2.6921157890       14.7541181443        5.7602402911  MEMB      16              0.0000000000
      1787        16  SOPE      H15R           -2.7648134274       13.6719711802        5.5166795547  MEMB      16              0.0000000000
      1788        16  SOPE      H15S           -2.0555852222       14.8510388624        6.6690240702  MEMB      16              0.0000000000
      1789        16  SOPE      C216           -1.9868210113       15.4805096437        4.6031744123  MEMB      16              0.0000000000
      1790        16  SOPE      H16R           -0.9207406545       15.1545271275        4.5977100606  MEMB      16              0.0000000000
      1791        16  SOPE      H16S           -1.9986087191       16.5780663504        4.7795906687  MEMB      16              0.0000000000
      1792        16  SOPE      C217           -2.5858152145       15.1653780691        3.2256895089  MEMB      16              0.0000000000
      1793        16  SOPE      H17R           -3.5976020111       15.6246853301        3.1518956078  MEMB      16              0.0000000000
      1794        16  SOPE      H17S           -2.7124446429       14.0611810524        3.1441761080  MEMB      16              0.0000000000
      1795        16  SOPE      C218           -1.7107815376       15.6473457876        2.0635771188  MEMB      16              0.0000000000
      1796        16  SOPE      H18R           -1.5701914096       16.7483871067        2.1118881768  MEMB      16              0.0000000000
      1797        16  SOPE      H18S           -2.1761919866       15.3923030650        1.0873225255  MEMB      16              0.0000000000
      1798        16  SOPE      H18T           -0.7104728632       15.1644258465        2.1098003951  MEMB      16              0.0000000000
      1799        16  SOPE      C33            -0.9623594552       14.3297905658       12.1845560122  MEMB      16              0.0000000000
      1800        16  SOPE      H3X            -0.2381850889       15.1636288211       12.0346815821  MEMB      16              0.0000000000
      1801        16  SOPE      H3Y            -1.9850116394       14.7525307206       12.0496909506  MEMB      16              0.0000000000
      1802        16  SOPE      C34            -0.7048996228       13.2627461190       11.1099370436  MEMB      16              0.0000000000
      1803        16  SOPE      H4X            -1.6126829114       12.6340696558       11.0032438838  MEMB      16              0.0000000000
      1804        16  SOPE      H4Y             0.1187105251       12.6013449614       11.4592553019  MEMB      16              0.0000000000
      1805        16  SOPE      C35            -0.2981470165       13.8592943863        9.7533984615  MEMB      16              0.0000000000
      1806        16  SOPE      H5X             0.7749945765       14.1433499629        9.8297801711  MEMB      16              0.0000000000
      1807        16  SOPE      H5Y            -0.8790412439       14.7863560318        9.5525389698  MEMB      16              0.0000000000
      1808        16  SOPE      C36            -0.4604214006       12.9137427614        8.5478352869  MEMB      16              0.0000000000
      1809        16  SOPE      H6X            -1.5102878789       12.9732446168        8.1788436357  MEMB      16              0.0000000000
      1810        16  SOPE      H6Y            -0.2874637017       11.8657273354        8.8666188528  MEMB      16              0.0000000000
      1811        16  SOPE      C37             0.5181001823       13.2873202594        7.4200722858  MEMB      16              0.0000000000
      1812        16  SOPE      H7X             1.5303964327       13.4470644288        7.8580355128  MEMB      16              0.0000000000
      1813        16  SOPE      H7Y             0.1860673656       14.2567567707        6.9832512190  MEMB      16              0.0000000000
      1814        16  SOPE      C38             0.6975957641       12.2725778699        6.2780153375  MEMB      16              0.0000000000
      1815        16  SOPE      H8X             1.5905733761       11.6389744050        6.4654678978  MEMB      16              0.0000000000
      1816        16  SOPE      H8Y             0.9194404633       12.8633704020        5.3597718996  MEMB      16              0.0000000000
      1817        16  SOPE      C39            -0.4895524804       11.3408928946        6.0206807740  MEMB      16              0.0000000000
      1818        16  SOPE      H9X            -1.3991457157       11.9455492883        5.8087647402  MEMB      16              0.0000000000
      1819        16  SOPE      H9Y            -0.6962500913       10.7147973308        6.9169514748  MEMB      16              0.0000000000
      1820        16  SOPE      C310           -0.2406872764       10.4185000261        4.8254462837  MEMB      16              0.0000000000
      1821        16  SOPE      H10X           -1.1599006764        9.8096085943        4.6669115624  MEMB      16              0.0000000000
      1822        16  SOPE      H10Y            0.5881768041        9.7067659266        5.0390343832  MEMB      16              0.0000000000
      1823        16  SOPE      C311            0.0809683921       11.2040532009        3.5475725381  MEMB      16              0.0000000000
      1824        16  SOPE      H11X            1.1620138504       11.4630119482        3.5255182534  MEMB      16              0.0000000000
      1825        16  SOPE      H11Y           -0.5020571205       12.1540452939        3.5322805287  MEMB      16              0.0000000000
      1826        16  SOPE      C312           -0.2821955025       10.4100858458        2.3037417770  MEMB      16              0.0000000000
      1827        16  SOPE      H12X            0.0321353150        9.3592059861        2.4656574424  MEMB      16              0.0000000000
      1828        16  SOPE      H12Y            0.2778323597       10.7850513715        1.4191613026  MEMB      16              0.0000000000
      1829        16  SOPE      C313           -1.7841628903       10.4770837912        2.0269609618  MEMB      16              0.0000000000
      1830        16  SOPE      H13X           -2.3715449705       10.6583866534        2.9543409754  MEMB      16              0.0000000000
      1831        16  SOPE      H13Y           -2.1144600111        9.4928559980        1.6304337119  MEMB      16              0.0000000000
      1832        16  SOPE      C314           -2.1245421407       11.5414775476        0.9868931520  MEMB      16              0.0000000000
      1833        16  SOPE      H14X           -1.2745652952       11.6501352495        0.2756746726  MEMB      16              0.0000000000
      1834        16  SOPE      H14Y           -2.2700423381       12.5274615113        1.4756336518  MEMB      16              0.0000000000
      1835        16  SOPE      C315           -3.3538319567       11.1187598080        0.1914667046  MEMB      16              0.0000000000
      1836        16  SOPE      H15X           -3.9472618826       12.0139128803       -0.0943575012  MEMB      16              0.0000000000
      1837        16  SOPE      H15Y           -3.9970278122       10.4751023644        0.8362872494  MEMB      16              0.0000000000
      1838        16  SOPE      C316           -2.9239957818       10.3585415543       -1.0687424864  MEMB      16              0.0000000000
      1839        16  SOPE      H16X           -2.5320325119        9.3595233467       -0.7772117834  MEMB      16              0.0000000000
      1840        16  SOPE      H16Y           -2.1009705294       10.9142660457       -1.5730389794  MEMB      16              0.0000000000
      1841        16  SOPE      C317           -4.0638817441       10.1720433849       -2.0586837058  MEMB      16              0.0000000000
      1842        16  SOPE      H17X           -3.6480914800        9.7243504434       -2.9923100023  MEMB      16              0.0000000000
      1843        16  SOPE      H17Y           -4.4905066098       11.1670482370       -2.3149142915  MEMB      16              0.0000000000
      1844        16  SOPE      C318           -5.1465398239        9.2578181853       -1.5033549876  MEMB      16              0.0000000000
      1845        16  SOPE      H18X           -5.3760088793        9.4760717310       -0.4417847030  MEMB      16              0.0000000000
      1846        16  SOPE      H18Y           -4.7788715365        8.2113872327       -1.5776585885  MEMB      16              0.0000000000
      1847        16  SOPE      H18Z           -6.0932989012        9.3453082975       -2.0736126451  MEMB      16              0.0000000000
      1848        17  SAPE      N             -16.6283204586        1.3046061141       20.0021228457  MEMB      17              0.0000000000
      1849        17  SAPE      HN1           -15.7161029643        1.7794951727       20.2176642047  MEMB      17              0.0000000000
      1850        17  SAPE      HN2           -17.3862957735        2.0023634433       20.0857154735  MEMB      17              0.0000000000
      1851        17  SAPE      HN3           -16.7439852079        0.5227647101       20.6959996152  MEMB      17              0.0000000000
      1852        17  SAPE      C12           -16.6067018823        0.6143433546       18.6691485350  MEMB      17              0.0000000000
      1853        17  SAPE      H12A          -16.0391614979        1.2259971998       17.9416753192  MEMB      17              0.0000000000
      1854        17  SAPE      H12B          -17.6601300052        0.5097666891       18.3313952220  MEMB      17              0.0000000000
      1855        17  SAPE      C11           -15.9878012502       -0.7679338485       18.8758571591  MEMB      17              0.0000000000
      1856        17  SAPE      H11A          -14.8706444569       -0.6554652196       18.9021818220  MEMB      17              0.0000000000
      1857        17  SAPE      H11B          -16.2339077073       -1.4129841606       17.9950857944  MEMB      17              0.0000000000
      1858        17  SAPE      P             -15.8736626656       -2.7536621908       20.4882784074  MEMB      17              0.0000000000
      1859        17  SAPE      O13           -14.4220290979       -2.6785108017       20.2535387418  MEMB      17              0.0000000000
      1860        17  SAPE      O14           -16.3783914045       -3.1495327358       21.8232556852  MEMB      17              0.0000000000
      1861        17  SAPE      O12           -16.4909217339       -1.3293128560       20.1084188784  MEMB      17              0.0000000000
      1862        17  SAPE      O11           -16.5749961368       -3.6260814271       19.3854109125  MEMB      17              0.0000000000
      1863        17  SAPE      C1            -17.9952754642       -3.6372761295       19.2666845195  MEMB      17              0.0000000000
      1864        17  SAPE      HA            -18.4689968637       -3.9897148372       20.2109612461  MEMB      17              0.0000000000
      1865        17  SAPE      HB            -18.3753121188       -2.6176212055       19.0247499263  MEMB      17              0.0000000000
      1866        17  SAPE      C2            -18.4085424087       -4.5750081190       18.1092436171  MEMB      17              0.0000000000
      1867        17  SAPE      HS            -18.0996442151       -5.6139059712       18.3719698405  MEMB      17              0.0000000000
      1868        17  SAPE      O21           -17.7903103138       -4.0953037433       16.9059908715  MEMB      17              0.0000000000
      1869        17  SAPE      C21           -16.6679077475       -4.6845283193       16.5611945525  MEMB      17              0.0000000000
      1870        17  SAPE      O22           -16.1523444135       -5.6506714158       17.0817971180  MEMB      17              0.0000000000
      1871        17  SAPE      C22           -16.1111470661       -3.9919853902       15.3341017183  MEMB      17              0.0000000000
      1872        17  SAPE      H2R           -16.1861003999       -2.8953194234       15.4767459321  MEMB      17              0.0000000000
      1873        17  SAPE      H2S           -15.0421301448       -4.2812255611       15.2746829906  MEMB      17              0.0000000000
      1874        17  SAPE      C3            -19.9436097338       -4.5748667654       17.8886842259  MEMB      17              0.0000000000
      1875        17  SAPE      HX            -20.4251363392       -4.9445999414       18.8203325527  MEMB      17              0.0000000000
      1876        17  SAPE      HY            -20.2022966441       -5.3164184621       17.0956532540  MEMB      17              0.0000000000
      1877        17  SAPE      O31           -20.4138087366       -3.2336959980       17.5988860878  MEMB      17              0.0000000000
      1878        17  SAPE      C31           -20.3823389271       -2.9195287305       16.3019614922  MEMB      17              0.0000000000
      1879        17  SAPE      O32           -20.1974142851       -3.6772842489       15.3751590276  MEMB      17              0.0000000000
      1880        17  SAPE      C32           -20.7589170573       -1.4504345158       16.1546588280  MEMB      17              0.0000000000
      1881        17  SAPE      H2X           -19.8619871668       -0.8309748153       16.3572579003  MEMB      17              0.0000000000
      1882        17  SAPE      H2Y           -21.5471366389       -1.2162896691       16.8996745847  MEMB      17              0.0000000000
      1883        17  SAPE      C23           -16.9049625063       -4.4512861937       14.0920082382  MEMB      17              0.0000000000
      1884        17  SAPE      H3R           -17.9557246843       -4.0909670750       14.2049550271  MEMB      17              0.0000000000
      1885        17  SAPE      H3S           -16.9464831039       -5.5658307765       14.0607409340  MEMB      17              0.0000000000
      1886        17  SAPE      C24           -16.3637262556       -3.9125064313       12.7583103924  MEMB      17              0.0000000000
      1887        17  SAPE      H4R           -16.3152299987       -2.8035124324       12.8232844497  MEMB      17              0.0000000000
      1888        17  SAPE      H4S           -17.1178797896       -4.1582116135       11.9763537656  MEMB      17              0.0000000000
      1889        17  SAPE      C25           -15.0137249320       -4.4794504500       12.4007935773  MEMB      17              0.0000000000
      1890        17  SAPE      H5R           -14.2746420409       -4.4511089720       13.2150133056  MEMB      17              0.0000000000
      1891        17  SAPE      C26           -14.6473275764       -5.0026298953       11.2139424253  MEMB      17              0.0000000000
      1892        17  SAPE      H6R           -13.6177686925       -5.3875807631       11.1255137340  MEMB      17              0.0000000000
      1893        17  SAPE      C27           -15.4963938625       -5.1449576245        9.9614964464  MEMB      17              0.0000000000
      1894        17  SAPE      H7R           -14.8041194080       -5.4149316567        9.1320797706  MEMB      17              0.0000000000
      1895        17  SAPE      H7S           -15.9228826999       -4.1587706926        9.6860506045  MEMB      17              0.0000000000
      1896        17  SAPE      C28           -16.5955383334       -6.1856967122       10.0451571167  MEMB      17              0.0000000000
      1897        17  SAPE      H8R           -16.4102110232       -6.9055517171       10.8520659005  MEMB      17              0.0000000000
      1898        17  SAPE      C29           -17.7733776423       -6.2953746584        9.3795554500  MEMB      17              0.0000000000
      1899        17  SAPE      H9R           -18.3737749397       -7.1996589373        9.5921473618  MEMB      17              0.0000000000
      1900        17  SAPE      C210          -18.3602164101       -5.3765046025        8.3168529827  MEMB      17              0.0000000000
      1901        17  SAPE      H10R          -18.0921055046       -5.7636956784        7.3111450083  MEMB      17              0.0000000000
      1902        17  SAPE      H10S          -17.9151025452       -4.3753296901        8.4069277840  MEMB      17              0.0000000000
      1903        17  SAPE      C211          -19.8614396359       -5.2155942031        8.3515624813  MEMB      17              0.0000000000
      1904        17  SAPE      H11R          -20.2560750572       -5.0282004726        9.3582224179  MEMB      17              0.0000000000
      1905        17  SAPE      C212          -20.6913556410       -4.9527389734        7.3191750729  MEMB      17              0.0000000000
      1906        17  SAPE      H12R          -21.7714837049       -5.1154612124        7.4819886915  MEMB      17              0.0000000000
      1907        17  SAPE      C213          -20.3110511116       -4.7466639352        5.8726200467  MEMB      17              0.0000000000
      1908        17  SAPE      H13R          -20.4541131557       -5.6627388160        5.2575453177  MEMB      17              0.0000000000
      1909        17  SAPE      H13S          -19.2315207589       -4.4870009709        5.7984087433  MEMB      17              0.0000000000
      1910        17  SAPE      C214          -21.1941265320       -3.6341620409        5.3575291680  MEMB      17              0.0000000000
      1911        17  SAPE      H14R          -22.2773691607       -3.7796529341        5.5116512427  MEMB      17              0.0000000000
      1912        17  SAPE      C215          -20.7632637442       -2.5227286863        4.7364505082  MEMB      17              0.0000000000
      1913        17  SAPE      H15R          -21.4884792945       -1.7367038381        4.4702953653  MEMB      17              0.0000000000
      1914        17  SAPE      C216          -19.3149388397       -2.2122497029        4.4496682668  MEMB      17              0.0000000000
      1915        17  SAPE      H16R          -18.8589131662       -3.0439742691        3.8670418634  MEMB      17              0.0000000000
      1916        17  SAPE      H16S          -18.7523589099       -2.1306249519        5.4036085948  MEMB      17              0.0000000000
      1917        17  SAPE      C217          -19.0899960776       -0.9063682546        3.6684847454  MEMB      17              0.0000000000
      1918        17  SAPE      H17R          -18.0007178065       -0.6872714944        3.6117140819  MEMB      17              0.0000000000
      1919        17  SAPE      H17S          -19.5602269549       -0.0604965512        4.2190192549  MEMB      17              0.0000000000
      1920        17  SAPE      C218          -19.6399415233       -0.9522626098        2.2408551690  MEMB      17              0.0000000000
      1921        17  SAPE      H18R          -20.6252919554       -1.4717949864        2.2407369004  MEMB      17              0.0000000000
      1922        17  SAPE      H18S          -18.9623289316       -1.5377246417        1.5790626254  MEMB      17              0.0000000000
      1923        17  SAPE      C219          -19.8624673665        0.4512292170        1.6719174521  MEMB      17              0.0000000000
      1924        17  SAPE      H19R          -20.4332075741        1.0608766333        2.4087662025  MEMB      17              0.0000000000
      1925        17  SAPE      H19S          -20.5204746693        0.3265055864        0.7878712979  MEMB      17              0.0000000000
      1926        17  SAPE      C220          -18.5757526223        1.1855525138        1.2813473172  MEMB      17              0.0000000000
      1927        17  SAPE      H20R          -17.9297999759        1.3440612119        2.1706032676  MEMB      17              0.0000000000
      1928        17  SAPE      H20S          -18.8108149883        2.1780406789        0.8386879478  MEMB      17              0.0000000000
      1929        17  SAPE      H20T          -18.0061913180        0.5960360037        0.5304244516  MEMB      17              0.0000000000
      1930        17  SAPE      C33           -21.3015122549       -1.1633034345       14.7458086559  MEMB      17              0.0000000000
      1931        17  SAPE      H3X           -22.0113407353       -0.3102253367       14.7866667862  MEMB      17              0.0000000000
      1932        17  SAPE      H3Y           -21.8691686486       -2.0160369892       14.3265797702  MEMB      17              0.0000000000
      1933        17  SAPE      C34           -20.2041912992       -0.8459762488       13.7396969323  MEMB      17              0.0000000000
      1934        17  SAPE      H4X           -19.4712399296       -1.6788848852       13.6832254014  MEMB      17              0.0000000000
      1935        17  SAPE      H4Y           -19.6346117002        0.0511655195       14.0619707553  MEMB      17              0.0000000000
      1936        17  SAPE      C35           -20.8303140881       -0.5884116380       12.3691043545  MEMB      17              0.0000000000
      1937        17  SAPE      H5X           -20.1521739175        0.0970524061       11.8239569688  MEMB      17              0.0000000000
      1938        17  SAPE      H5Y           -21.7909599969       -0.0427549085       12.4890079552  MEMB      17              0.0000000000
      1939        17  SAPE      C36           -21.0528656010       -1.8607641346       11.5394293274  MEMB      17              0.0000000000
      1940        17  SAPE      H6X           -21.5454659671       -1.5897498195       10.5777304306  MEMB      17              0.0000000000
      1941        17  SAPE      H6Y           -21.7263447479       -2.5435802673       12.0881942199  MEMB      17              0.0000000000
      1942        17  SAPE      C37           -19.7599409900       -2.6327029159       11.2541987778  MEMB      17              0.0000000000
      1943        17  SAPE      H7X           -19.9435890830       -3.3675244568       10.4434452153  MEMB      17              0.0000000000
      1944        17  SAPE      H7Y           -19.4561855462       -3.2127153796       12.1535786629  MEMB      17              0.0000000000
      1945        17  SAPE      C38           -18.6146050208       -1.7099315942       10.8321722620  MEMB      17              0.0000000000
      1946        17  SAPE      H8X           -17.7304551140       -2.3485443256       10.6400821459  MEMB      17              0.0000000000
      1947        17  SAPE      H8Y           -18.3099064537       -1.0435354128       11.6662420094  MEMB      17              0.0000000000
      1948        17  SAPE      C39           -19.0147463683       -0.8636457625        9.6117333203  MEMB      17              0.0000000000
      1949        17  SAPE      H9X           -19.4729956825        0.0956947445        9.9215257303  MEMB      17              0.0000000000
      1950        17  SAPE      H9Y           -19.7818596237       -1.4270962757        9.0297597680  MEMB      17              0.0000000000
      1951        17  SAPE      C310          -17.8590049079       -0.5672808494        8.6731120204  MEMB      17              0.0000000000
      1952        17  SAPE      H10X          -17.0196313583       -0.1023724339        9.2344792658  MEMB      17              0.0000000000
      1953        17  SAPE      H10Y          -18.1978005943        0.1397662783        7.8814382779  MEMB      17              0.0000000000
      1954        17  SAPE      C311          -17.4121628761       -1.8605799607        8.0161300932  MEMB      17              0.0000000000
      1955        17  SAPE      H11X          -18.2604920356       -2.2997675859        7.4435960131  MEMB      17              0.0000000000
      1956        17  SAPE      H11Y          -17.1246982822       -2.6008102630        8.7880795724  MEMB      17              0.0000000000
      1957        17  SAPE      C312          -16.2096816361       -1.6770770470        7.1232678168  MEMB      17              0.0000000000
      1958        17  SAPE      H12X          -15.3547604533       -1.2837083201        7.7207158101  MEMB      17              0.0000000000
      1959        17  SAPE      H12Y          -16.4547945422       -0.9382542215        6.3287002308  MEMB      17              0.0000000000
      1960        17  SAPE      C313          -15.8193443742       -3.0137426783        6.5064820787  MEMB      17              0.0000000000
      1961        17  SAPE      H13X          -16.7132645392       -3.5363272035        6.0990519214  MEMB      17              0.0000000000
      1962        17  SAPE      H13Y          -15.3889254542       -3.6651246338        7.3023095397  MEMB      17              0.0000000000
      1963        17  SAPE      C314          -14.7931126694       -2.7909065815        5.4091149344  MEMB      17              0.0000000000
      1964        17  SAPE      H14X          -14.1964150392       -3.7198663487        5.2945308912  MEMB      17              0.0000000000
      1965        17  SAPE      H14Y          -14.1142098053       -1.9742301332        5.7511741627  MEMB      17              0.0000000000
      1966        17  SAPE      C315          -15.4049496289       -2.4072052540        4.0554615301  MEMB      17              0.0000000000
      1967        17  SAPE      H15X          -14.6248291950       -1.9464398155        3.4090059695  MEMB      17              0.0000000000
      1968        17  SAPE      H15Y          -16.1938165557       -1.6422877344        4.2180934453  MEMB      17              0.0000000000
      1969        17  SAPE      C316          -15.9686356783       -3.6059020815        3.2871785947  MEMB      17              0.0000000000
      1970        17  SAPE      H16X          -16.5898466765       -3.2200411384        2.4477657401  MEMB      17              0.0000000000
      1971        17  SAPE      H16Y          -16.6453363458       -4.1887686064        3.9517486539  MEMB      17              0.0000000000
      1972        17  SAPE      C317          -14.8649053928       -4.5225159748        2.7321995342  MEMB      17              0.0000000000
      1973        17  SAPE      H17X          -15.0426298692       -5.5537550053        3.1105580868  MEMB      17              0.0000000000
      1974        17  SAPE      H17Y          -13.8781950708       -4.2070641283        3.1397785188  MEMB      17              0.0000000000
      1975        17  SAPE      C318          -14.7913909122       -4.5414237784        1.2016711980  MEMB      17              0.0000000000
      1976        17  SAPE      H18X          -14.2999989367       -5.4697130364        0.8469343646  MEMB      17              0.0000000000
      1977        17  SAPE      H18Y          -14.2069268466       -3.6728659461        0.8274855693  MEMB      17              0.0000000000
      1978        17  SAPE      H18Z          -15.8098301512       -4.5094539073        0.7604715637  MEMB      17              0.0000000000
      1979        18  CHL1      C3              3.9759042228       16.1189378534       17.5215380167  MEMB      18              0.0000000000
      1980        18  CHL1      H3              4.5328195021       15.1556351507       17.5963858926  MEMB      18              0.0000000000
      1981        18  CHL1      O3              3.6908839825       16.5940884692       18.8314998337  MEMB      18              0.0000000000
      1982        18  CHL1      H3'             2.9488786210       17.1986631331       18.7123631612  MEMB      18              0.0000000000
      1983        18  CHL1      C4              4.8471710938       17.1376121131       16.7574287532  MEMB      18              0.0000000000
      1984        18  CHL1      H4A             4.4192022558       18.1566562483       16.8638030328  MEMB      18              0.0000000000
      1985        18  CHL1      H4B             5.8377352769       17.1785374785       17.2662801253  MEMB      18              0.0000000000
      1986        18  CHL1      C5              4.9945094270       16.8139109372       15.2834895414  MEMB      18              0.0000000000
      1987        18  CHL1      C6              6.2029906698       16.7352435994       14.6961331302  MEMB      18              0.0000000000
      1988        18  CHL1      H6              7.1113619004       16.9251957548       15.2885358773  MEMB      18              0.0000000000
      1989        18  CHL1      C7              6.3923734502       16.5676610955       13.2155297076  MEMB      18              0.0000000000
      1990        18  CHL1      H7A             7.1559461263       17.2833028291       12.8468099568  MEMB      18              0.0000000000
      1991        18  CHL1      H7B             6.7377973061       15.5398207294       12.9695252703  MEMB      18              0.0000000000
      1992        18  CHL1      C8              5.0769198922       16.8601289016       12.4533293222  MEMB      18              0.0000000000
      1993        18  CHL1      H8              4.8797638127       17.9499453787       12.5611408455  MEMB      18              0.0000000000
      1994        18  CHL1      C14             5.2455525278       16.5657585012       10.9783696968  MEMB      18              0.0000000000
      1995        18  CHL1      H14             5.4974857177       15.4798655670       10.8808113587  MEMB      18              0.0000000000
      1996        18  CHL1      C15             6.3625274745       17.3330510189       10.2429216724  MEMB      18              0.0000000000
      1997        18  CHL1      H15A            6.3924778724       18.3856480273       10.6006019044  MEMB      18              0.0000000000
      1998        18  CHL1      H15B            7.3528133048       16.8710857991       10.4099799966  MEMB      18              0.0000000000
      1999        18  CHL1      C16             5.9357901142       17.2991161140        8.7705959441  MEMB      18              0.0000000000
      2000        18  CHL1      H16A            5.8838864187       18.3421546186        8.3898311124  MEMB      18              0.0000000000
      2001        18  CHL1      H16B            6.6455777130       16.7341431169        8.1374430450  MEMB      18              0.0000000000
      2002        18  CHL1      C17             4.5248014798       16.6312588601        8.7448602851  MEMB      18              0.0000000000
      2003        18  CHL1      H17             4.6875176532       15.5365147367        8.6093985495  MEMB      18              0.0000000000
      2004        18  CHL1      C13             3.9815925208       16.7915831584       10.1714911013  MEMB      18              0.0000000000
      2005        18  CHL1      C18             3.4851664660       18.2460100039       10.3201278793  MEMB      18              0.0000000000
      2006        18  CHL1      H18A            3.2629510456       18.5026431985       11.3721694592  MEMB      18              0.0000000000
      2007        18  CHL1      H18B            4.2087928072       18.9858364359        9.9262543293  MEMB      18              0.0000000000
      2008        18  CHL1      H18C            2.5353122747       18.3483642525        9.7654983800  MEMB      18              0.0000000000
      2009        18  CHL1      C12             2.9250504979       15.7878077711       10.6693027502  MEMB      18              0.0000000000
      2010        18  CHL1      H12A            1.9741308587       15.9419678112       10.1214947173  MEMB      18              0.0000000000
      2011        18  CHL1      H12B            3.2747121399       14.7508670186       10.4839648405  MEMB      18              0.0000000000
      2012        18  CHL1      C11             2.6373486674       15.9923307752       12.1710100973  MEMB      18              0.0000000000
      2013        18  CHL1      H11A            2.0432331424       16.9258592162       12.2328335553  MEMB      18              0.0000000000
      2014        18  CHL1      H11B            1.9802166074       15.1731535257       12.5283846018  MEMB      18              0.0000000000
      2015        18  CHL1      C9              3.9123041913       16.0740620860       13.0742605247  MEMB      18              0.0000000000
      2016        18  CHL1      H9              4.2742785999       15.0183644951       13.1399156026  MEMB      18              0.0000000000
      2017        18  CHL1      C10             3.6642257957       16.5560664668       14.5353236131  MEMB      18              0.0000000000
      2018        18  CHL1      C19             2.8623154090       17.8821436731       14.4945846850  MEMB      18              0.0000000000
      2019        18  CHL1      H19A            2.7244872401       18.3158314097       15.5037142700  MEMB      18              0.0000000000
      2020        18  CHL1      H19B            3.3624488139       18.6503237511       13.8711547299  MEMB      18              0.0000000000
      2021        18  CHL1      H19C            1.8435462024       17.6994555964       14.0965468726  MEMB      18              0.0000000000
      2022        18  CHL1      C1              2.8409395868       15.5028439720       15.3319619081  MEMB      18              0.0000000000
      2023        18  CHL1      H1A             1.8444021473       15.4050225351       14.8541710492  MEMB      18              0.0000000000
      2024        18  CHL1      H1B             3.3439810754       14.5142434928       15.2640915407  MEMB      18              0.0000000000
      2025        18  CHL1      C2              2.6399492165       15.8758857573       16.8140430694  MEMB      18              0.0000000000
      2026        18  CHL1      H2A             2.0974931990       15.0610386411       17.3393283374  MEMB      18              0.0000000000
      2027        18  CHL1      H2B             2.0179268853       16.7962114650       16.8810820877  MEMB      18              0.0000000000
      2028        18  CHL1      C20             3.6706262859       17.1444690795        7.5877967257  MEMB      18              0.0000000000
      2029        18  CHL1      H20             3.4862535564       18.2386722188        7.7080766034  MEMB      18              0.0000000000
      2030        18  CHL1      C21             2.3046584446       16.4340190120        7.5434951690  MEMB      18              0.0000000000
      2031        18  CHL1      H21A            1.6058985303       16.8884846550        8.2751406968  MEMB      18              0.0000000000
      2032        18  CHL1      H21B            2.4329084336       15.3593394382        7.7825975899  MEMB      18              0.0000000000
      2033        18  CHL1      H21C            1.8495544958       16.5239747869        6.5344544122  MEMB      18              0.0000000000
      2034        18  CHL1      C22             4.3763934658       16.9903837564        6.2297779090  MEMB      18              0.0000000000
      2035        18  CHL1      H22A            3.6776180547       17.4283276811        5.4850005064  MEMB      18              0.0000000000
      2036        18  CHL1      H22B            5.3041499979       17.6021825526        6.1984803996  MEMB      18              0.0000000000
      2037        18  CHL1      C23             4.7263781610       15.5443758665        5.8506748366  MEMB      18              0.0000000000
      2038        18  CHL1      H23A            5.3872301885       15.0938917151        6.6223822567  MEMB      18              0.0000000000
      2039        18  CHL1      H23B            3.8063942761       14.9220044460        5.8070602357  MEMB      18              0.0000000000
      2040        18  CHL1      C24             5.4584515974       15.4997516920        4.5085267313  MEMB      18              0.0000000000
      2041        18  CHL1      H24A            6.3762916054       16.1244464597        4.5796083053  MEMB      18              0.0000000000
      2042        18  CHL1      H24B            5.7860253826       14.4581062681        4.2883036094  MEMB      18              0.0000000000
      2043        18  CHL1      C25             4.5921816653       16.0069428642        3.3432549048  MEMB      18              0.0000000000
      2044        18  CHL1      H25             4.1140461123       16.9767012863        3.6061102005  MEMB      18              0.0000000000
      2045        18  CHL1      C26             5.4778192797       16.3006745770        2.1311012839  MEMB      18              0.0000000000
      2046        18  CHL1      H26A            6.2038665808       15.4743226275        1.9937185356  MEMB      18              0.0000000000
      2047        18  CHL1      H26B            4.8665189010       16.4276635290        1.2132532485  MEMB      18              0.0000000000
      2048        18  CHL1      H26C            6.0566501379       17.2317393470        2.3020412594  MEMB      18              0.0000000000
      2049        18  CHL1      C27             3.4703402144       15.0022379562        3.0485724328  MEMB      18              0.0000000000
      2050        18  CHL1      H27A            2.9003417608       15.2908041414        2.1426821747  MEMB      18              0.0000000000
      2051        18  CHL1      H27B            3.9112294948       13.9973630144        2.9086145616  MEMB      18              0.0000000000
      2052        18  CHL1      H27C            2.7594030377       14.9327054680        3.8985399223  MEMB      18              0.0000000000
      2053        19  OSM       N             -13.5275762257       12.9960086338       21.0776225838  MEMB      19              0.0000000000
      2054        19  OSM       C15           -14.6912517603       12.9608782553       20.1433661503  MEMB      19              0.0000000000
      2055        19  OSM       H15A          -14.4578476915       13.4461396166       19.1932287230  MEMB      19              0.0000000000
      2056        19  OSM       H15B          -15.5361894548       13.4977174274       20.5742044042  MEMB      19              0.0000000000
      2057        19  OSM       H15C          -14.9755866678       11.9420822937       19.9432174299  MEMB      19              0.0000000000
      2058        19  OSM       C14           -13.9856015953       12.6261161598       22.4518042105  MEMB      19              0.0000000000
      2059        19  OSM       H14A          -14.3756412246       11.6213470628       22.4843671536  MEMB      19              0.0000000000
      2060        19  OSM       H14B          -14.7471276202       13.3197090784       22.7989448407  MEMB      19              0.0000000000
      2061        19  OSM       H14C          -13.1391025750       12.7078975207       23.1314439677  MEMB      19              0.0000000000
      2062        19  OSM       C13           -12.4428473804       12.0608759798       20.6271709057  MEMB      19              0.0000000000
      2063        19  OSM       H13A          -12.7148923024       11.0197041687       20.6882387198  MEMB      19              0.0000000000
      2064        19  OSM       H13B          -11.5499684672       12.2561039068       21.2368910000  MEMB      19              0.0000000000
      2065        19  OSM       H13C          -12.1369505437       12.3022638032       19.6122166220  MEMB      19              0.0000000000
      2066        19  OSM       C12           -12.9355043188       14.4066955201       21.0984219055  MEMB      19              0.0000000000
      2067        19  OSM       H12A          -13.7148411149       15.1442549668       21.2533301573  MEMB      19              0.0000000000
      2068        19  OSM       H12B          -12.5268293909       14.6296163302       20.1156137499  MEMB      19              0.0000000000
      2069        19  OSM       C11           -11.7531433612       14.6810875867       22.0658140348  MEMB      19              0.0000000000
      2070        19  OSM       H11A          -11.9961398934       14.3262733780       23.0894070086  MEMB      19              0.0000000000
      2071        19  OSM       H11B          -11.6223853320       15.7857632491       22.1745627699  MEMB      19              0.0000000000
      2072        19  OSM       P              -9.7145220915       14.7961110402       20.4609195936  MEMB      19              0.0000000000
      2073        19  OSM       O13            -9.0597646457       15.9915455847       21.0213388597  MEMB      19              0.0000000000
      2074        19  OSM       O14            -8.7643484099       13.8354243635       19.8644710189  MEMB      19              0.0000000000
      2075        19  OSM       O11           -10.8223774079       15.2167387466       19.3882776022  MEMB      19              0.0000000000
      2076        19  OSM       O12           -10.5496168543       14.0494684363       21.6096105101  MEMB      19              0.0000000000
      2077        19  OSM       C1S           -10.3823298120       15.7442991444       18.1225995228  MEMB      19              0.0000000000
      2078        19  OSM       H1S            -9.2724758328       15.7555756706       18.0035209795  MEMB      19              0.0000000000
      2079        19  OSM       H1T           -10.7236034646       16.7986869004       18.0097791421  MEMB      19              0.0000000000
      2080        19  OSM       NF            -10.2140276992       15.1312524674       15.7273284733  MEMB      19              0.0000000000
      2081        19  OSM       HNF           -10.6302483737       15.6137956329       14.9645396526  MEMB      19              0.0000000000
      2082        19  OSM       C2S           -10.9696438883       14.9049565961       16.9533345220  MEMB      19              0.0000000000
      2083        19  OSM       H2S           -10.8897265923       13.8257061511       17.2170078323  MEMB      19              0.0000000000
      2084        19  OSM       C3S           -12.4681670298       15.2793980510       16.8190183722  MEMB      19              0.0000000000
      2085        19  OSM       H3S           -12.5894697462       16.3855559136       16.7962896159  MEMB      19              0.0000000000
      2086        19  OSM       O3            -13.2119803407       14.7877202902       17.9285124608  MEMB      19              0.0000000000
      2087        19  OSM       HO3           -12.5103548019       14.7455964016       18.5905358160  MEMB      19              0.0000000000
      2088        19  OSM       C4S           -12.9840384390       14.6799689924       15.5556229396  MEMB      19              0.0000000000
      2089        19  OSM       H4S           -13.2350278739       13.6103176549       15.5913582421  MEMB      19              0.0000000000
      2090        19  OSM       C5S           -13.0815595033       15.3853712829       14.4150947399  MEMB      19              0.0000000000
      2091        19  OSM       H5S           -12.7839924924       16.4483738901       14.4132042633  MEMB      19              0.0000000000
      2092        19  OSM       C6S           -13.5723095255       14.8720249325       13.0993704764  MEMB      19              0.0000000000
      2093        19  OSM       H6S           -12.6951458843       14.6240814648       12.4587632081  MEMB      19              0.0000000000
      2094        19  OSM       H6T           -14.1125396335       15.6921005995       12.5905365875  MEMB      19              0.0000000000
      2095        19  OSM       C7S           -14.4967379047       13.6438902064       13.1722994837  MEMB      19              0.0000000000
      2096        19  OSM       H7S           -15.2840889657       13.7882844791       13.9434227318  MEMB      19              0.0000000000
      2097        19  OSM       H7T           -13.8793209498       12.7738052522       13.4888152280  MEMB      19              0.0000000000
      2098        19  OSM       C8S           -15.1656591816       13.3114622164       11.8227417964  MEMB      19              0.0000000000
      2099        19  OSM       H8S           -15.9951733296       14.0095050519       11.6411658042  MEMB      19              0.0000000000
      2100        19  OSM       H8T           -15.6483989963       12.3158072202       11.8910760426  MEMB      19              0.0000000000
      2101        19  OSM       C9S           -14.1641582220       13.3194140614       10.6520671566  MEMB      19              0.0000000000
      2102        19  OSM       H9S           -13.3189711774       12.6538774759       10.9473926436  MEMB      19              0.0000000000
      2103        19  OSM       H9T           -13.7553219143       14.3439025655       10.5080524282  MEMB      19              0.0000000000
      2104        19  OSM       C10S          -14.6937223048       12.8286565618        9.2929401909  MEMB      19              0.0000000000
      2105        19  OSM       H10S          -15.3744080505       13.6000345441        8.8713967108  MEMB      19              0.0000000000
      2106        19  OSM       H10T          -15.2830700634       11.8941279326        9.4385535999  MEMB      19              0.0000000000
      2107        19  OSM       C11S          -13.5263456541       12.5388128787        8.3210782899  MEMB      19              0.0000000000
      2108        19  OSM       H11S          -13.3302971160       11.4442760574        8.3302033979  MEMB      19              0.0000000000
      2109        19  OSM       H11T          -12.6113209163       13.0456365581        8.7065432155  MEMB      19              0.0000000000
      2110        19  OSM       C12S          -13.7339916749       13.0178529075        6.8743833717  MEMB      19              0.0000000000
      2111        19  OSM       H12S          -13.6468434813       14.1290328546        6.8561987762  MEMB      19              0.0000000000
      2112        19  OSM       H12T          -14.7631469860       12.7604614237        6.5404576687  MEMB      19              0.0000000000
      2113        19  OSM       C13S          -12.7337433451       12.4217729992        5.8543363381  MEMB      19              0.0000000000
      2114        19  OSM       H13S          -12.9662577917       11.3480132404        5.7028680538  MEMB      19              0.0000000000
      2115        19  OSM       H13T          -11.6994978435       12.4443100086        6.2485258933  MEMB      19              0.0000000000
      2116        19  OSM       C14S          -12.8001461277       13.1931384231        4.5243155003  MEMB      19              0.0000000000
      2117        19  OSM       H14S          -12.4557105725       14.2346174023        4.7005041610  MEMB      19              0.0000000000
      2118        19  OSM       H14T          -13.8678381171       13.2785192676        4.2254714022  MEMB      19              0.0000000000
      2119        19  OSM       C15S          -12.0170382477       12.6265779669        3.3243087523  MEMB      19              0.0000000000
      2120        19  OSM       H15S          -12.2544240167       11.5542841680        3.1607456921  MEMB      19              0.0000000000
      2121        19  OSM       H15T          -10.9247111270       12.7038625600        3.5082852547  MEMB      19              0.0000000000
      2122        19  OSM       C16S          -12.3774527355       13.4471566944        2.0744751382  MEMB      19              0.0000000000
      2123        19  OSM       H16S          -12.1917141226       14.5163510188        2.3205669888  MEMB      19              0.0000000000
      2124        19  OSM       H16T          -13.4648158565       13.3370089372        1.8632978087  MEMB      19              0.0000000000
      2125        19  OSM       C17S          -11.6077809610       13.1260967502        0.7932953744  MEMB      19              0.0000000000
      2126        19  OSM       H17S          -11.8904202520       12.1022965206        0.4639899467  MEMB      19              0.0000000000
      2127        19  OSM       H17T          -10.5148431930       13.1274768430        1.0036176724  MEMB      19              0.0000000000
      2128        19  OSM       C18S          -11.9096733680       14.1295131944       -0.3280587919  MEMB      19              0.0000000000
      2129        19  OSM       H18S          -11.3440472569       13.8907183043       -1.2538209511  MEMB      19              0.0000000000
      2130        19  OSM       H18T          -11.6322131034       15.1601809477       -0.0114654752  MEMB      19              0.0000000000
      2131        19  OSM       H18U          -12.9952180761       14.1159090196       -0.5666746119  MEMB      19              0.0000000000
      2132        19  OSM       C1F            -8.9917247641       14.6138547830       15.6028728422  MEMB      19              0.0000000000
      2133        19  OSM       OF             -8.5595297344       13.8135511308       16.4172565047  MEMB      19              0.0000000000
      2134        19  OSM       C2F            -8.1992548701       15.0200802640       14.4107206781  MEMB      19              0.0000000000
      2135        19  OSM       H2F            -8.7730613771       14.7537001121       13.5034097156  MEMB      19              0.0000000000
      2136        19  OSM       H2G            -7.2610854382       14.4376275760       14.4068971444  MEMB      19              0.0000000000
      2137        19  OSM       C3F            -7.8754035827       16.5246560595       14.4716571932  MEMB      19              0.0000000000
      2138        19  OSM       H3F            -7.2952821571       16.7289632297       15.4044973817  MEMB      19              0.0000000000
      2139        19  OSM       H3G            -8.8104867830       17.1204381550       14.5353026127  MEMB      19              0.0000000000
      2140        19  OSM       C4F            -7.0463256138       17.0548752926       13.2931857413  MEMB      19              0.0000000000
      2141        19  OSM       H4F            -5.9803203997       16.7791219976       13.4740384361  MEMB      19              0.0000000000
      2142        19  OSM       H4G            -7.0949380085       18.1674051784       13.3099896226  MEMB      19              0.0000000000
      2143        19  OSM       C5F            -7.4200711577       16.5438133177       11.8886256223  MEMB      19              0.0000000000
      2144        19  OSM       H5F            -7.0771110374       15.4867607163       11.7941161134  MEMB      19              0.0000000000
      2145        19  OSM       H5G            -6.8235009866       17.1384468034       11.1568095958  MEMB      19              0.0000000000
      2146        19  OSM       C6F            -8.9021536457       16.5925762545       11.4545516805  MEMB      19              0.0000000000
      2147        19  OSM       H6F            -9.4372994589       15.6757491752       11.7771212878  MEMB      19              0.0000000000
      2148        19  OSM       H6G            -8.8854451792       16.5468768996       10.3410943396  MEMB      19              0.0000000000
      2149        19  OSM       C7F            -9.7267378962       17.8121550566       11.9082374057  MEMB      19              0.0000000000
      2150        19  OSM       H7F            -9.0552520956       18.6927377415       12.0414163340  MEMB      19              0.0000000000
      2151        19  OSM       H7G           -10.1791620980       17.6097357434       12.9037583848  MEMB      19              0.0000000000
      2152        19  OSM       C8F           -10.8537877572       18.1642713300       10.9114176984  MEMB      19              0.0000000000
      2153        19  OSM       H8F           -11.4783430849       18.9675573788       11.3638232531  MEMB      19              0.0000000000
      2154        19  OSM       H8G           -11.5070553086       17.2845033199       10.7248140944  MEMB      19              0.0000000000
      2155        19  OSM       C9F           -10.2059552020       18.6909539020        9.6636896579  MEMB      19              0.0000000000
      2156        19  OSM       H9F            -9.1482764414       18.9320767229        9.8327384197  MEMB      19              0.0000000000
      2157        19  OSM       C10F          -10.6062102071       18.6996779492        8.3870649567  MEMB      19              0.0000000000
      2158        19  OSM       H10F           -9.9113486803       19.0780363759        7.6199651547  MEMB      19              0.0000000000
      2159        19  OSM       C11F          -11.8775787543       18.1424127859        7.8352534856  MEMB      19              0.0000000000
      2160        19  OSM       H11F          -12.4580533522       18.9131445976        7.2809084627  MEMB      19              0.0000000000
      2161        19  OSM       H11G          -12.5217312105       17.7152971205        8.6289929436  MEMB      19              0.0000000000
      2162        19  OSM       C12F          -11.4567141067       17.0027466209        6.8986422215  MEMB      19              0.0000000000
      2163        19  OSM       H12F          -11.0736276027       17.4411218410        5.9489660796  MEMB      19              0.0000000000
      2164        19  OSM       H12G          -12.3588132769       16.3990666076        6.6482495611  MEMB      19              0.0000000000
      2165        19  OSM       C13F          -10.3747951818       16.0753927796        7.4991066272  MEMB      19              0.0000000000
      2166        19  OSM       H13F          -10.7051595198       15.7481179077        8.5128756226  MEMB      19              0.0000000000
      2167        19  OSM       H13G           -9.4038690930       16.6072072882        7.6164251484  MEMB      19              0.0000000000
      2168        19  OSM       C14F          -10.0920658125       14.8472611767        6.6410140465  MEMB      19              0.0000000000
      2169        19  OSM       H14F          -10.9853685512       14.2047477040        6.7596555477  MEMB      19              0.0000000000
      2170        19  OSM       H14G           -9.2141196197       14.2983288645        7.0455263472  MEMB      19              0.0000000000
      2171        19  OSM       C15F           -9.8920284317       15.1451558761        5.1468900371  MEMB      19              0.0000000000
      2172        19  OSM       H15F          -10.8126334737       15.6221752247        4.7444750931  MEMB      19              0.0000000000
      2173        19  OSM       H15G           -9.7735488239       14.1730071215        4.6221618158  MEMB      19              0.0000000000
      2174        19  OSM       C16F           -8.6936876996       16.0423731110        4.7987749427  MEMB      19              0.0000000000
      2175        19  OSM       H16F           -7.7578877247       15.4752223976        5.0007660688  MEMB      19              0.0000000000
      2176        19  OSM       H16G           -8.6876471627       16.9467687237        5.4471729300  MEMB      19              0.0000000000
      2177        19  OSM       C17F           -8.7088525457       16.5066282950        3.3301361076  MEMB      19              0.0000000000
      2178        19  OSM       H17F           -7.7173568890       16.9488080829        3.0832394662  MEMB      19              0.0000000000
      2179        19  OSM       H17G           -9.4697615700       17.3161454997        3.2253429822  MEMB      19              0.0000000000
      2180        19  OSM       C18F           -9.0438134663       15.4038538348        2.3200174829  MEMB      19              0.0000000000
      2181        19  OSM       H18F           -8.9430540543       15.7717117956        1.2768969901  MEMB      19              0.0000000000
      2182        19  OSM       H18G          -10.0948671744       15.0732842964        2.4571289952  MEMB      19              0.0000000000
      2183        19  OSM       H18H           -8.3822648331       14.5229617611        2.4610690500  MEMB      19              0.0000000000
      2184        20  CHL1      C3             -0.4672433572      -19.0691949465       17.2372298414  MEMB      20              0.0000000000
      2185        20  CHL1      H3              0.4538296365      -18.6687138409       16.7560799699  MEMB      20              0.0000000000
      2186        20  CHL1      O3             -0.3565052909      -18.8894948272       18.6331510062  MEMB      20              0.0000000000
      2187        20  CHL1      H3'            -1.1932778420      -19.2946572755       18.9519438453  MEMB      20              0.0000000000
      2188        20  CHL1      C4             -1.7105331067      -18.3167069191       16.7552793421  MEMB      20              0.0000000000
      2189        20  CHL1      H4A            -2.6069046195      -18.6875303824       17.2996641519  MEMB      20              0.0000000000
      2190        20  CHL1      H4B            -1.5870510969      -17.2419788104       17.0302217488  MEMB      20              0.0000000000
      2191        20  CHL1      C5             -1.9351086775      -18.5035230250       15.2769101800  MEMB      20              0.0000000000
      2192        20  CHL1      C6             -2.0823153065      -17.4194511662       14.5110282369  MEMB      20              0.0000000000
      2193        20  CHL1      H6             -2.0717412207      -16.4341254165       14.9984933772  MEMB      20              0.0000000000
      2194        20  CHL1      C7             -2.3349625720      -17.4506203114       13.0377054711  MEMB      20              0.0000000000
      2195        20  CHL1      H7A            -3.1907888805      -16.7914110495       12.7739056635  MEMB      20              0.0000000000
      2196        20  CHL1      H7B            -1.4482604834      -17.0582313552       12.5038201138  MEMB      20              0.0000000000
      2197        20  CHL1      C8             -2.6042188759      -18.8794379773       12.5105756274  MEMB      20              0.0000000000
      2198        20  CHL1      H8             -3.6753667070      -19.1048379370       12.7008171358  MEMB      20              0.0000000000
      2199        20  CHL1      C14            -2.3342366236      -18.9012234034       11.0194463790  MEMB      20              0.0000000000
      2200        20  CHL1      H14            -1.2313667169      -18.7225363388       10.9140930658  MEMB      20              0.0000000000
      2201        20  CHL1      C15            -2.9818844353      -17.8032637891       10.1541470494  MEMB      20              0.0000000000
      2202        20  CHL1      H15A           -4.0158618342      -17.6002218074       10.4966133873  MEMB      20              0.0000000000
      2203        20  CHL1      H15B           -2.3917439367      -16.8639782867       10.1982317043  MEMB      20              0.0000000000
      2204        20  CHL1      C16            -2.9852936714      -18.4049074228        8.7437344172  MEMB      20              0.0000000000
      2205        20  CHL1      H16A           -4.0394213431      -18.4912032684        8.3972164228  MEMB      20              0.0000000000
      2206        20  CHL1      H16B           -2.4232554250      -17.7780141151        8.0238859489  MEMB      20              0.0000000000
      2207        20  CHL1      C17            -2.3513198722      -19.8288071126        8.8706595180  MEMB      20              0.0000000000
      2208        20  CHL1      H17            -1.2483976764      -19.6964616164        8.7698823191  MEMB      20              0.0000000000
      2209        20  CHL1      C13            -2.5942444226      -20.2378359591       10.3415942576  MEMB      20              0.0000000000
      2210        20  CHL1      C18            -4.0796825375      -20.6541448547       10.4926893721  MEMB      20              0.0000000000
      2211        20  CHL1      H18A           -4.7602154412      -19.9273324006       10.0076949745  MEMB      20              0.0000000000
      2212        20  CHL1      H18B           -4.2296062472      -21.6375988646       10.0092557412  MEMB      20              0.0000000000
      2213        20  CHL1      H18C           -4.3843959796      -20.7543059912       11.5515612627  MEMB      20              0.0000000000
      2214        20  CHL1      C12            -1.6225233570      -21.2492845662       10.9971505356  MEMB      20              0.0000000000
      2215        20  CHL1      H12A           -1.7135781610      -22.2633941460       10.5728763273  MEMB      20              0.0000000000
      2216        20  CHL1      H12B           -0.5821852127      -20.8986268236       10.8150751407  MEMB      20              0.0000000000
      2217        20  CHL1      C11            -1.8421017843      -21.3340732526       12.5217120580  MEMB      20              0.0000000000
      2218        20  CHL1      H11A           -2.8459331316      -21.7728302926       12.7005433895  MEMB      20              0.0000000000
      2219        20  CHL1      H11B           -1.0960723125      -22.0330761023       12.9572531054  MEMB      20              0.0000000000
      2220        20  CHL1      C9             -1.7196516047      -19.9389225410       13.2006328784  MEMB      20              0.0000000000
      2221        20  CHL1      H9             -0.6656325986      -19.6136216603       13.0102188694  MEMB      20              0.0000000000
      2222        20  CHL1      C10            -1.8874980494      -19.9528613164       14.7396614037  MEMB      20              0.0000000000
      2223        20  CHL1      C19            -3.2523650911      -20.5815032847       15.0606568929  MEMB      20              0.0000000000
      2224        20  CHL1      H19A           -4.0682620011      -20.0235716033       14.5657849999  MEMB      20              0.0000000000
      2225        20  CHL1      H19B           -3.3057696335      -21.6443786754       14.7521633919  MEMB      20              0.0000000000
      2226        20  CHL1      H19C           -3.4216883091      -20.5402034830       16.1521832348  MEMB      20              0.0000000000
      2227        20  CHL1      C1             -0.7837158421      -20.8177370673       15.4343726834  MEMB      20              0.0000000000
      2228        20  CHL1      H1A            -1.0251940002      -21.8957029565       15.2934360639  MEMB      20              0.0000000000
      2229        20  CHL1      H1B             0.1951578608      -20.6210452656       14.9509163043  MEMB      20              0.0000000000
      2230        20  CHL1      C2             -0.6288589156      -20.5624660394       16.9456835085  MEMB      20              0.0000000000
      2231        20  CHL1      H2A             0.2419698399      -21.1118995970       17.3607831185  MEMB      20              0.0000000000
      2232        20  CHL1      H2B            -1.5398511825      -20.9361090813       17.4657452669  MEMB      20              0.0000000000
      2233        20  CHL1      C20            -2.7997631491      -20.7601791058        7.7383339673  MEMB      20              0.0000000000
      2234        20  CHL1      H20            -3.9122598007      -20.8349661289        7.7558467302  MEMB      20              0.0000000000
      2235        20  CHL1      C21            -2.2061589376      -22.1712052255        7.9274761799  MEMB      20              0.0000000000
      2236        20  CHL1      H21A           -2.6308270840      -22.6455701644        8.8277842427  MEMB      20              0.0000000000
      2237        20  CHL1      H21B           -1.1020375771      -22.1244238625        8.0148792828  MEMB      20              0.0000000000
      2238        20  CHL1      H21C           -2.4619069541      -22.8461048432        7.0897422392  MEMB      20              0.0000000000
      2239        20  CHL1      C22            -2.4038178637      -20.2099097767        6.3452251392  MEMB      20              0.0000000000
      2240        20  CHL1      H22A           -2.7642508311      -19.1657816574        6.2239218447  MEMB      20              0.0000000000
      2241        20  CHL1      H22B           -1.2961727440      -20.2075919770        6.2600253028  MEMB      20              0.0000000000
      2242        20  CHL1      C23            -3.0074996883      -21.0295802908        5.2022089927  MEMB      20              0.0000000000
      2243        20  CHL1      H23A           -2.6866123771      -22.0908947106        5.2690615731  MEMB      20              0.0000000000
      2244        20  CHL1      H23B           -4.1120359875      -20.9973627915        5.3056365502  MEMB      20              0.0000000000
      2245        20  CHL1      C24            -2.6559286921      -20.5429024826        3.7980050608  MEMB      20              0.0000000000
      2246        20  CHL1      H24A           -3.0491200809      -19.5170187556        3.6424286082  MEMB      20              0.0000000000
      2247        20  CHL1      H24B           -1.5508795292      -20.5059011374        3.6844296966  MEMB      20              0.0000000000
      2248        20  CHL1      C25            -3.2553482936      -21.5114236362        2.7645910282  MEMB      20              0.0000000000
      2249        20  CHL1      H25            -4.2031087780      -21.8958850051        3.1851145573  MEMB      20              0.0000000000
      2250        20  CHL1      C26            -3.6250694221      -20.8366913908        1.4409477989  MEMB      20              0.0000000000
      2251        20  CHL1      H26A           -3.8627452255      -21.6139278387        0.6815402695  MEMB      20              0.0000000000
      2252        20  CHL1      H26B           -4.5132333122      -20.1877645814        1.5750824749  MEMB      20              0.0000000000
      2253        20  CHL1      H26C           -2.7920097722      -20.2075148414        1.0732288066  MEMB      20              0.0000000000
      2254        20  CHL1      C27            -2.3493510564      -22.7263921583        2.5740128533  MEMB      20              0.0000000000
      2255        20  CHL1      H27A           -2.5394424766      -23.2584356391        1.6187706894  MEMB      20              0.0000000000
      2256        20  CHL1      H27B           -1.3012438115      -22.3775152881        2.5642913941  MEMB      20              0.0000000000
      2257        20  CHL1      H27C           -2.4549421726      -23.4466906176        3.4142910280  MEMB      20              0.0000000000
      2258        21  CHL1      C3              8.0059431358      -17.9662723995       17.0782913113  MEMB      21              0.0000000000
      2259        21  CHL1      H3              7.2648040949      -17.1308988132       17.0895320988  MEMB      21              0.0000000000
      2260        21  CHL1      O3              8.2392208210      -18.4335567385       18.3989071370  MEMB      21              0.0000000000
      2261        21  CHL1      H3'             8.6141781188      -17.6896213579       18.9066594857  MEMB      21              0.0000000000
      2262        21  CHL1      C4              7.4463047181      -19.1436303422       16.2762586767  MEMB      21              0.0000000000
      2263        21  CHL1      H4A             8.0264521016      -20.0440782755       16.5593736531  MEMB      21              0.0000000000
      2264        21  CHL1      H4B             6.4168160636      -19.3236483430       16.6571592294  MEMB      21              0.0000000000
      2265        21  CHL1      C5              7.4845095988      -18.9606282260       14.7727081063  MEMB      21              0.0000000000
      2266        21  CHL1      C6              6.3978921765      -19.1305735539       14.0089565342  MEMB      21              0.0000000000
      2267        21  CHL1      H6              5.4542062111      -19.4307406759       14.4859802556  MEMB      21              0.0000000000
      2268        21  CHL1      C7              6.4379909468      -19.0655062806       12.5069398385  MEMB      21              0.0000000000
      2269        21  CHL1      H7A             5.7866329876      -19.8549170063       12.0764882775  MEMB      21              0.0000000000
      2270        21  CHL1      H7B             6.0693105509      -18.0768887099       12.1527671060  MEMB      21              0.0000000000
      2271        21  CHL1      C8              7.8883979877      -19.2852885437       11.9977319588  MEMB      21              0.0000000000
      2272        21  CHL1      H8              8.2014056069      -20.2915402834       12.3176651894  MEMB      21              0.0000000000
      2273        21  CHL1      C14             8.0156646304      -19.2208425914       10.4863107876  MEMB      21              0.0000000000
      2274        21  CHL1      H14             7.8094674035      -18.1581040068       10.2102125448  MEMB      21              0.0000000000
      2275        21  CHL1      C15             7.0331564119      -20.0625900965        9.6624076449  MEMB      21              0.0000000000
      2276        21  CHL1      H15A            6.9220425149      -21.0555153539       10.1444550168  MEMB      21              0.0000000000
      2277        21  CHL1      H15B            6.0339950550      -19.5918709630        9.6050530407  MEMB      21              0.0000000000
      2278        21  CHL1      C16             7.7207479835      -20.2182559129        8.2961877810  MEMB      21              0.0000000000
      2279        21  CHL1      H16A            7.8039971558      -21.3026050002        8.0671159934  MEMB      21              0.0000000000
      2280        21  CHL1      H16B            7.1525625700      -19.7225687684        7.4840645987  MEMB      21              0.0000000000
      2281        21  CHL1      C17             9.1482636272      -19.6019642766        8.4361409264  MEMB      21              0.0000000000
      2282        21  CHL1      H17             9.0711594409      -18.5461860253        8.1053212431  MEMB      21              0.0000000000
      2283        21  CHL1      C13             9.4120322573      -19.5707992979        9.9504015030  MEMB      21              0.0000000000
      2284        21  CHL1      C18             9.8645133114      -20.9887592279       10.3716341557  MEMB      21              0.0000000000
      2285        21  CHL1      H18A           10.9136431537      -21.1582587901       10.0637381210  MEMB      21              0.0000000000
      2286        21  CHL1      H18B            9.8346914635      -21.1266117153       11.4684854974  MEMB      21              0.0000000000
      2287        21  CHL1      H18C            9.2345121266      -21.7635443602        9.8988833700  MEMB      21              0.0000000000
      2288        21  CHL1      C12            10.3701054551      -18.5048125112       10.4842019319  MEMB      21              0.0000000000
      2289        21  CHL1      H12A           11.4277008185      -18.6895279149       10.2259555367  MEMB      21              0.0000000000
      2290        21  CHL1      H12B           10.1142224856      -17.5689931586        9.9851725771  MEMB      21              0.0000000000
      2291        21  CHL1      C11            10.2827160264      -18.4341289488       12.0178236506  MEMB      21              0.0000000000
      2292        21  CHL1      H11A           10.8261838091      -19.3511090160       12.3153983410  MEMB      21              0.0000000000
      2293        21  CHL1      H11B           10.8625568424      -17.6049709571       12.4154958809  MEMB      21              0.0000000000
      2294        21  CHL1      C9              8.8620663819      -18.3272901865       12.6601153590  MEMB      21              0.0000000000
      2295        21  CHL1      H9              8.4807600087      -17.2958345458       12.4633495270  MEMB      21              0.0000000000
      2296        21  CHL1      C10             8.8457195316      -18.5284584681       14.2018455792  MEMB      21              0.0000000000
      2297        21  CHL1      C19             9.9214054823      -19.5769514826       14.5439184640  MEMB      21              0.0000000000
      2298        21  CHL1      H19A            9.9018275872      -19.8162256809       15.6166463703  MEMB      21              0.0000000000
      2299        21  CHL1      H19B            9.7773867527      -20.5151261287       13.9667124804  MEMB      21              0.0000000000
      2300        21  CHL1      H19C           10.9467345848      -19.1885239608       14.3675789296  MEMB      21              0.0000000000
      2301        21  CHL1      C1              9.1932157660      -17.2268057457       14.9525995173  MEMB      21              0.0000000000
      2302        21  CHL1      H1A            10.1542481083      -16.8895645182       14.5279626196  MEMB      21              0.0000000000
      2303        21  CHL1      H1B             8.4414811288      -16.4345700234       14.7387360595  MEMB      21              0.0000000000
      2304        21  CHL1      C2              9.3111125937      -17.4421033567       16.4806076767  MEMB      21              0.0000000000
      2305        21  CHL1      H2A             9.5442026354      -16.5048649718       16.9949371551  MEMB      21              0.0000000000
      2306        21  CHL1      H2B            10.1567584603      -18.1220980849       16.7179877757  MEMB      21              0.0000000000
      2307        21  CHL1      C20            10.1660232849      -20.2525990887        7.4898268019  MEMB      21              0.0000000000
      2308        21  CHL1      H20            10.2248755626      -21.3428694264        7.7095108888  MEMB      21              0.0000000000
      2309        21  CHL1      C21            11.5825134604      -19.6650016746        7.6882861394  MEMB      21              0.0000000000
      2310        21  CHL1      H21A           11.9484844430      -19.8263456161        8.7164668804  MEMB      21              0.0000000000
      2311        21  CHL1      H21B           11.5948288861      -18.5786951930        7.4619589014  MEMB      21              0.0000000000
      2312        21  CHL1      H21C           12.3155924248      -20.1805510297        7.0359230950  MEMB      21              0.0000000000
      2313        21  CHL1      C22             9.6859697929      -20.0822871627        6.0219759463  MEMB      21              0.0000000000
      2314        21  CHL1      H22A            8.8117828782      -20.7480043996        5.8454830260  MEMB      21              0.0000000000
      2315        21  CHL1      H22B            9.3402927312      -19.0327323162        5.8782869951  MEMB      21              0.0000000000
      2316        21  CHL1      C23            10.7412836201      -20.3627725291        4.9407062114  MEMB      21              0.0000000000
      2317        21  CHL1      H23A           11.5939900122      -19.6580562793        5.0721994481  MEMB      21              0.0000000000
      2318        21  CHL1      H23B           11.1267103738      -21.3990810715        5.0466427794  MEMB      21              0.0000000000
      2319        21  CHL1      C24            10.2065379608      -20.1363454959        3.5185996105  MEMB      21              0.0000000000
      2320        21  CHL1      H24A            9.3997669417      -20.8631194233        3.2824491346  MEMB      21              0.0000000000
      2321        21  CHL1      H24B            9.7586886732      -19.1171715665        3.4815680207  MEMB      21              0.0000000000
      2322        21  CHL1      C25            11.3110508804      -20.2231180854        2.4452960765  MEMB      21              0.0000000000
      2323        21  CHL1      H25            12.2490187586      -19.8020960591        2.8835417347  MEMB      21              0.0000000000
      2324        21  CHL1      C26            11.5635662330      -21.6741547028        2.0092391960  MEMB      21              0.0000000000
      2325        21  CHL1      H26A           10.6116489704      -22.1168913952        1.6414951356  MEMB      21              0.0000000000
      2326        21  CHL1      H26B           12.3028245402      -21.7064247645        1.1814579583  MEMB      21              0.0000000000
      2327        21  CHL1      H26C           11.9412046994      -22.2920926400        2.8509474141  MEMB      21              0.0000000000
      2328        21  CHL1      C27            10.9482762763      -19.3751346259        1.2182664568  MEMB      21              0.0000000000
      2329        21  CHL1      H27A           10.1876500365      -19.9009309443        0.6051484501  MEMB      21              0.0000000000
      2330        21  CHL1      H27B           10.5393574593      -18.3904037007        1.5284373723  MEMB      21              0.0000000000
      2331        21  CHL1      H27C           11.8462676384      -19.1985613900        0.5889033114  MEMB      21              0.0000000000
      2332        22  CHL1      C3             18.4144158207       -9.2075944141       17.7799596046  MEMB      22              0.0000000000
      2333        22  CHL1      H3             19.5017635488       -9.1761751223       17.5287586600  MEMB      22              0.0000000000
      2334        22  CHL1      O3             18.2899338028       -9.1472133103       19.1991078449  MEMB      22              0.0000000000
      2335        22  CHL1      H3'            18.4958410681      -10.0612894188       19.4725383657  MEMB      22              0.0000000000
      2336        22  CHL1      C4             17.7300654166       -7.9944158917       17.1211667825  MEMB      22              0.0000000000
      2337        22  CHL1      H4A            16.6953619818       -7.9023365872       17.5163817370  MEMB      22              0.0000000000
      2338        22  CHL1      H4B            18.2746819016       -7.0874583498       17.4625463945  MEMB      22              0.0000000000
      2339        22  CHL1      C5             17.7186463353       -8.1072777611       15.6035210533  MEMB      22              0.0000000000
      2340        22  CHL1      C6             18.2893394835       -7.1841490783       14.8093941255  MEMB      22              0.0000000000
      2341        22  CHL1      H6             18.7796384184       -6.3097237174       15.2621920466  MEMB      22              0.0000000000
      2342        22  CHL1      C7             18.2612776882       -7.2402281773       13.3045348404  MEMB      22              0.0000000000
      2343        22  CHL1      H7A            18.0858972070       -6.2338529930       12.8692053687  MEMB      22              0.0000000000
      2344        22  CHL1      H7B            19.2444505520       -7.5899673101       12.9392443391  MEMB      22              0.0000000000
      2345        22  CHL1      C8             17.1908661607       -8.2163086546       12.7472710980  MEMB      22              0.0000000000
      2346        22  CHL1      H8             16.2172682175       -7.7198510817       12.9148586927  MEMB      22              0.0000000000
      2347        22  CHL1      C14            17.3941596604       -8.4832736871       11.2499062840  MEMB      22              0.0000000000
      2348        22  CHL1      H14            18.3939842328       -8.9817257308       11.1596395099  MEMB      22              0.0000000000
      2349        22  CHL1      C15            17.4335513148       -7.2884205737       10.2875338052  MEMB      22              0.0000000000
      2350        22  CHL1      H15A           16.5161656171       -6.6819988564       10.4082336900  MEMB      22              0.0000000000
      2351        22  CHL1      H15B           18.3179094174       -6.6389380482       10.4279451086  MEMB      22              0.0000000000
      2352        22  CHL1      C16            17.4120234093       -7.9761020035        8.9149859391  MEMB      22              0.0000000000
      2353        22  CHL1      H16A           16.9699144334       -7.3483215093        8.1222521966  MEMB      22              0.0000000000
      2354        22  CHL1      H16B           18.4633726409       -8.1781986906        8.6546074481  MEMB      22              0.0000000000
      2355        22  CHL1      C17            16.7357692167       -9.3703126330        9.0932431092  MEMB      22              0.0000000000
      2356        22  CHL1      H17            17.5449641601      -10.1243540832        8.9517057348  MEMB      22              0.0000000000
      2357        22  CHL1      C13            16.3848177468       -9.4372886279       10.6113875655  MEMB      22              0.0000000000
      2358        22  CHL1      C18            14.9733540071       -8.8823757028       10.8058687478  MEMB      22              0.0000000000
      2359        22  CHL1      H18A           14.7865562895       -8.6421016727       11.8604787528  MEMB      22              0.0000000000
      2360        22  CHL1      H18B           14.7811259709       -7.9747116919       10.2019479057  MEMB      22              0.0000000000
      2361        22  CHL1      H18C           14.2455631712       -9.6735570721       10.5665670554  MEMB      22              0.0000000000
      2362        22  CHL1      C12            16.5010654030      -10.7865287784       11.3341930405  MEMB      22              0.0000000000
      2363        22  CHL1      H12A           15.7074137005      -11.4679880833       10.9802499331  MEMB      22              0.0000000000
      2364        22  CHL1      H12B           17.4857470754      -11.2403548486       11.1095548950  MEMB      22              0.0000000000
      2365        22  CHL1      C11            16.3077814374      -10.6329994114       12.8581141907  MEMB      22              0.0000000000
      2366        22  CHL1      H11A           15.2383604976      -10.3910666521       13.0259828926  MEMB      22              0.0000000000
      2367        22  CHL1      H11B           16.4928141401      -11.6086617262       13.3454094231  MEMB      22              0.0000000000
      2368        22  CHL1      C9             17.2184209289       -9.5480915805       13.5078212597  MEMB      22              0.0000000000
      2369        22  CHL1      H9             18.2563737478       -9.9322297637       13.3473470498  MEMB      22              0.0000000000
      2370        22  CHL1      C10            17.0662135177       -9.3935123649       15.0547388559  MEMB      22              0.0000000000
      2371        22  CHL1      C19            15.5603962900       -9.3326212859       15.4371249701  MEMB      22              0.0000000000
      2372        22  CHL1      H19A           15.4039345455       -9.3239415304       16.5364412471  MEMB      22              0.0000000000
      2373        22  CHL1      H19B           15.1008463553       -8.4057817785       15.0411468550  MEMB      22              0.0000000000
      2374        22  CHL1      H19C           14.9909406604      -10.2012525297       15.0579476592  MEMB      22              0.0000000000
      2375        22  CHL1      C1             17.7928164398      -10.5942117863       15.7359958241  MEMB      22              0.0000000000
      2376        22  CHL1      H1A            17.3152898191      -11.5432300698       15.4153848666  MEMB      22              0.0000000000
      2377        22  CHL1      H1B            18.8459680766      -10.6072512437       15.3705494736  MEMB      22              0.0000000000
      2378        22  CHL1      C2             17.8397355703      -10.5447867624       17.2760500334  MEMB      22              0.0000000000
      2379        22  CHL1      H2A            18.4899259673      -11.3697851038       17.6414854864  MEMB      22              0.0000000000
      2380        22  CHL1      H2B            16.8119235417      -10.7042404118       17.6709091924  MEMB      22              0.0000000000
      2381        22  CHL1      C20            15.6731184637       -9.7064527799        8.0087343748  MEMB      22              0.0000000000
      2382        22  CHL1      H20            14.8237547478       -8.9968930695        8.0765047803  MEMB      22              0.0000000000
      2383        22  CHL1      C21            15.2210536312      -11.1416588224        8.2880035999  MEMB      22              0.0000000000
      2384        22  CHL1      H21A           14.6879298776      -11.2170130251        9.2478398344  MEMB      22              0.0000000000
      2385        22  CHL1      H21B           16.1233554080      -11.7721061729        8.3540304012  MEMB      22              0.0000000000
      2386        22  CHL1      H21C           14.5686997435      -11.5416436650        7.4905864547  MEMB      22              0.0000000000
      2387        22  CHL1      C22            16.2381938756       -9.6789246274        6.5522688412  MEMB      22              0.0000000000
      2388        22  CHL1      H22A           16.8699499251       -8.7868852061        6.4372533274  MEMB      22              0.0000000000
      2389        22  CHL1      H22B           16.8821333371      -10.5825688338        6.4597255014  MEMB      22              0.0000000000
      2390        22  CHL1      C23            15.2948822460       -9.6769514735        5.3211239744  MEMB      22              0.0000000000
      2391        22  CHL1      H23A           14.5402765079      -10.4707840870        5.4353807318  MEMB      22              0.0000000000
      2392        22  CHL1      H23B           14.7616498563       -8.7033113549        5.2536600985  MEMB      22              0.0000000000
      2393        22  CHL1      C24            16.0924069164       -9.9172552172        4.0082225925  MEMB      22              0.0000000000
      2394        22  CHL1      H24A           16.6990625960       -9.0120362622        3.7996720358  MEMB      22              0.0000000000
      2395        22  CHL1      H24B           16.7956224885      -10.7621766246        4.1924487286  MEMB      22              0.0000000000
      2396        22  CHL1      C25            15.2938727739      -10.3017049716        2.7321270866  MEMB      22              0.0000000000
      2397        22  CHL1      H25            14.8204544541      -11.2837637651        2.9309017434  MEMB      22              0.0000000000
      2398        22  CHL1      C26            14.1900771964       -9.3103229187        2.3587583879  MEMB      22              0.0000000000
      2399        22  CHL1      H26A           14.6654925038       -8.3835192260        1.9795585257  MEMB      22              0.0000000000
      2400        22  CHL1      H26B           13.5597412405       -9.7259276382        1.5413499028  MEMB      22              0.0000000000
      2401        22  CHL1      H26C           13.5354005806       -9.0719201824        3.2212366708  MEMB      22              0.0000000000
      2402        22  CHL1      C27            16.2044884311      -10.4756988189        1.5013483677  MEMB      22              0.0000000000
      2403        22  CHL1      H27A           16.9612360540      -11.2724618576        1.6608938035  MEMB      22              0.0000000000
      2404        22  CHL1      H27B           15.6008534469      -10.7295815546        0.6042652730  MEMB      22              0.0000000000
      2405        22  CHL1      H27C           16.7174249315       -9.5201414987        1.2729338129  MEMB      22              0.0000000000
      2406        23  SAPS      N             -16.4925160868      -14.3155036056       19.7121459607  MEMB      23              0.0000000000
      2407        23  SAPS      HN1           -17.4747834175      -14.5262109490       19.9899670609  MEMB      23              0.0000000000
      2408        23  SAPS      HN2           -16.2321002721      -13.3286014485       19.9607531435  MEMB      23              0.0000000000
      2409        23  SAPS      HN3           -16.4075622259      -14.5000232125       18.6924941396  MEMB      23              0.0000000000
      2410        23  SAPS      C12           -15.6331689958      -15.3064082202       20.4498938503  MEMB      23              0.0000000000
      2411        23  SAPS      H12A          -15.5086236748      -14.9590597231       21.4672066244  MEMB      23              0.0000000000
      2412        23  SAPS      C13           -16.3702530388      -16.6926112963       20.4949831877  MEMB      23              0.0000000000
      2413        23  SAPS      O13A          -17.5236419234      -16.7525716525       19.9681094530  MEMB      23              0.0000000000
      2414        23  SAPS      O13B          -16.0082424991      -17.5124348004       21.3800963465  MEMB      23              0.0000000000
      2415        23  SAPS      C11           -14.2305220930      -15.3467868699       19.7400127340  MEMB      23              0.0000000000
      2416        23  SAPS      H11A          -14.1653415987      -14.4621687957       19.0573527039  MEMB      23              0.0000000000
      2417        23  SAPS      H11B          -14.1978393122      -16.2500037070       19.0834967162  MEMB      23              0.0000000000
      2418        23  SAPS      P             -11.6625575754      -15.3041651566       19.9009739897  MEMB      23              0.0000000000
      2419        23  SAPS      O13           -11.8366384332      -14.2653042761       18.8518247625  MEMB      23              0.0000000000
      2420        23  SAPS      O14           -10.5212640640      -15.1602881228       20.8448903144  MEMB      23              0.0000000000
      2421        23  SAPS      O12           -13.1064445982      -15.3129484030       20.6566983924  MEMB      23              0.0000000000
      2422        23  SAPS      O11           -11.6611508346      -16.7213443651       19.1931451368  MEMB      23              0.0000000000
      2423        23  SAPS      C1            -12.0002685101      -17.9013742315       19.9410253091  MEMB      23              0.0000000000
      2424        23  SAPS      HA            -11.1375780838      -18.1692048728       20.5964799156  MEMB      23              0.0000000000
      2425        23  SAPS      HB            -12.9055969608      -17.7559737805       20.5785043198  MEMB      23              0.0000000000
      2426        23  SAPS      C2            -12.2669324036      -19.1447384434       19.0376349668  MEMB      23              0.0000000000
      2427        23  SAPS      HS            -12.4893152075      -20.0028249126       19.7198708101  MEMB      23              0.0000000000
      2428        23  SAPS      O21           -11.0951382184      -19.3850115854       18.2570992605  MEMB      23              0.0000000000
      2429        23  SAPS      C21           -10.7476693102      -20.5934511432       17.9402858209  MEMB      23              0.0000000000
      2430        23  SAPS      O22           -11.3151265078      -21.6366802397       18.2124455287  MEMB      23              0.0000000000
      2431        23  SAPS      C22            -9.5258983669      -20.5422520824       17.0690402352  MEMB      23              0.0000000000
      2432        23  SAPS      H2R            -9.2338146654      -19.4961631744       16.8390359074  MEMB      23              0.0000000000
      2433        23  SAPS      H2S            -8.6894988504      -21.0122369074       17.6089100430  MEMB      23              0.0000000000
      2434        23  SAPS      C3            -13.4843205541      -18.9918537071       18.0842799983  MEMB      23              0.0000000000
      2435        23  SAPS      HX            -14.4210432688      -18.8978023543       18.6780050420  MEMB      23              0.0000000000
      2436        23  SAPS      HY            -13.5105286765      -19.9643275006       17.5306189385  MEMB      23              0.0000000000
      2437        23  SAPS      O31           -13.3577623459      -17.8815570632       17.1687195070  MEMB      23              0.0000000000
      2438        23  SAPS      C31           -14.1125345670      -18.0170343654       16.1026717175  MEMB      23              0.0000000000
      2439        23  SAPS      O32           -14.9716707890      -18.8583037831       15.9305900138  MEMB      23              0.0000000000
      2440        23  SAPS      C32           -13.5993880009      -17.0801014963       15.0257124622  MEMB      23              0.0000000000
      2441        23  SAPS      H2X           -12.4948443282      -17.1709328808       14.9651498281  MEMB      23              0.0000000000
      2442        23  SAPS      H2Y           -13.8669327712      -16.0372780120       15.2878404307  MEMB      23              0.0000000000
      2443        23  SAPS      C23            -9.8517422341      -21.3659435740       15.8397312288  MEMB      23              0.0000000000
      2444        23  SAPS      H3R           -10.5939295116      -22.1826543618       16.0046370870  MEMB      23              0.0000000000
      2445        23  SAPS      H3S            -8.9093559807      -21.9110387704       15.6135193246  MEMB      23              0.0000000000
      2446        23  SAPS      C24           -10.3494662241      -20.4456024318       14.7365061205  MEMB      23              0.0000000000
      2447        23  SAPS      H4R            -9.7482688942      -19.5071182205       14.7091490734  MEMB      23              0.0000000000
      2448        23  SAPS      H4S           -11.4153934658      -20.1591793008       14.8826725741  MEMB      23              0.0000000000
      2449        23  SAPS      C25           -10.0972594482      -21.2204854741       13.5018026899  MEMB      23              0.0000000000
      2450        23  SAPS      H5R            -9.4419675641      -22.1002891632       13.5978340485  MEMB      23              0.0000000000
      2451        23  SAPS      C26           -10.5985289070      -20.9486061774       12.3243378136  MEMB      23              0.0000000000
      2452        23  SAPS      H6R           -10.1214361533      -21.4866227221       11.5033481359  MEMB      23              0.0000000000
      2453        23  SAPS      C27           -11.5245424902      -19.8329952798       11.9299499756  MEMB      23              0.0000000000
      2454        23  SAPS      H7R           -11.1920380816      -18.8701805446       12.3759987975  MEMB      23              0.0000000000
      2455        23  SAPS      H7S           -12.5544174727      -20.0274663570       12.2987147876  MEMB      23              0.0000000000
      2456        23  SAPS      C28           -11.5549910632      -19.7071382953       10.4348662360  MEMB      23              0.0000000000
      2457        23  SAPS      H8R           -11.5491024412      -18.6730847423       10.0567391752  MEMB      23              0.0000000000
      2458        23  SAPS      C29           -11.5905523516      -20.7063902876        9.5349021736  MEMB      23              0.0000000000
      2459        23  SAPS      H9R           -11.6127843922      -20.3951987458        8.4934445484  MEMB      23              0.0000000000
      2460        23  SAPS      C210          -11.6222180863      -22.2216469598        9.6910488212  MEMB      23              0.0000000000
      2461        23  SAPS      H10R          -10.6746865108      -22.6103686887       10.0938091877  MEMB      23              0.0000000000
      2462        23  SAPS      H10S          -11.6394521308      -22.6905430297        8.6819455790  MEMB      23              0.0000000000
      2463        23  SAPS      C211          -12.7791630918      -22.7502014096       10.5091145174  MEMB      23              0.0000000000
      2464        23  SAPS      H11R          -12.5129267898      -23.4350376160       11.3287947516  MEMB      23              0.0000000000
      2465        23  SAPS      C212          -14.0774395945      -22.4302396002       10.3153650997  MEMB      23              0.0000000000
      2466        23  SAPS      H12R          -14.8284991559      -22.9354521280       10.9473219247  MEMB      23              0.0000000000
      2467        23  SAPS      C213          -14.6264240944      -21.4905920485        9.2445863289  MEMB      23              0.0000000000
      2468        23  SAPS      H13R          -14.6805561461      -20.4435026943        9.6102867394  MEMB      23              0.0000000000
      2469        23  SAPS      H13S          -15.6665066441      -21.8471929666        9.1130729042  MEMB      23              0.0000000000
      2470        23  SAPS      C214          -13.9141768667      -21.6260495433        7.9074881028  MEMB      23              0.0000000000
      2471        23  SAPS      H14R          -13.6563805677      -22.6818033795        7.8522089814  MEMB      23              0.0000000000
      2472        23  SAPS      C215          -13.3935296676      -20.8782373973        6.8893653937  MEMB      23              0.0000000000
      2473        23  SAPS      H15R          -12.9664818079      -21.4923542390        6.0859949203  MEMB      23              0.0000000000
      2474        23  SAPS      C216          -13.2601540015      -19.4042948139        6.5289443155  MEMB      23              0.0000000000
      2475        23  SAPS      H16R          -12.6183163501      -18.8501931612        7.2507756798  MEMB      23              0.0000000000
      2476        23  SAPS      H16S          -14.2278640087      -18.9148625875        6.5336096894  MEMB      23              0.0000000000
      2477        23  SAPS      C217          -12.8135169715      -19.1228000006        5.0585019675  MEMB      23              0.0000000000
      2478        23  SAPS      H17R          -12.8610092654      -20.0636998494        4.4698972480  MEMB      23              0.0000000000
      2479        23  SAPS      H17S          -11.7658421556      -18.7465229420        5.0415280535  MEMB      23              0.0000000000
      2480        23  SAPS      C218          -13.7105244836      -18.1746287997        4.2358694806  MEMB      23              0.0000000000
      2481        23  SAPS      H18R          -13.7417393797      -17.1689015052        4.6988052580  MEMB      23              0.0000000000
      2482        23  SAPS      H18S          -14.7490962857      -18.5728481321        4.2230518538  MEMB      23              0.0000000000
      2483        23  SAPS      C219          -13.2263236207      -18.0455976558        2.7798483450  MEMB      23              0.0000000000
      2484        23  SAPS      H19R          -12.1321743598      -17.8370921580        2.7848012230  MEMB      23              0.0000000000
      2485        23  SAPS      H19S          -13.7144482171      -17.1628328210        2.3069731622  MEMB      23              0.0000000000
      2486        23  SAPS      C220          -13.5281489031      -19.2821605881        1.9225313451  MEMB      23              0.0000000000
      2487        23  SAPS      H20R          -12.6485372586      -19.9439771031        1.8015405979  MEMB      23              0.0000000000
      2488        23  SAPS      H20S          -13.8609132601      -18.9813411551        0.9069890927  MEMB      23              0.0000000000
      2489        23  SAPS      H20T          -14.3260839703      -19.8898311860        2.3941149734  MEMB      23              0.0000000000
      2490        23  SAPS      C33           -14.2575360378      -17.5087571151       13.7074459216  MEMB      23              0.0000000000
      2491        23  SAPS      H3X           -14.1638400827      -18.6068336632       13.5355991065  MEMB      23              0.0000000000
      2492        23  SAPS      H3Y           -13.7125684484      -17.0263468552       12.8710617503  MEMB      23              0.0000000000
      2493        23  SAPS      C34           -15.7446928570      -17.1199197543       13.6990005626  MEMB      23              0.0000000000
      2494        23  SAPS      H4X           -15.9254709937      -16.2185886449       14.3245782230  MEMB      23              0.0000000000
      2495        23  SAPS      H4Y           -16.3462452993      -17.9464656569       14.1495759634  MEMB      23              0.0000000000
      2496        23  SAPS      C35           -16.2608504463      -16.8361322269       12.2988243278  MEMB      23              0.0000000000
      2497        23  SAPS      H5X           -17.3724978640      -16.7478744503       12.3177197522  MEMB      23              0.0000000000
      2498        23  SAPS      H5Y           -16.0201557444      -17.7320044068       11.6904930976  MEMB      23              0.0000000000
      2499        23  SAPS      C36           -15.6621700175      -15.5527363734       11.7029378539  MEMB      23              0.0000000000
      2500        23  SAPS      H6X           -14.5936145787      -15.4309275289       11.9790170535  MEMB      23              0.0000000000
      2501        23  SAPS      H6Y           -16.2154810124      -14.6847226687       12.1280161665  MEMB      23              0.0000000000
      2502        23  SAPS      C37           -15.7422943204      -15.5631879635       10.1798161516  MEMB      23              0.0000000000
      2503        23  SAPS      H7X           -15.4859590898      -14.5676486801        9.7610033054  MEMB      23              0.0000000000
      2504        23  SAPS      H7Y           -16.8059428873      -15.7540801831        9.9181307059  MEMB      23              0.0000000000
      2505        23  SAPS      C38           -14.8483722835      -16.6548552110        9.5680884919  MEMB      23              0.0000000000
      2506        23  SAPS      H8X           -15.2879009445      -16.9644345418        8.6197991652  MEMB      23              0.0000000000
      2507        23  SAPS      H8Y           -14.7894173060      -17.5836431558       10.1657333414  MEMB      23              0.0000000000
      2508        23  SAPS      C39           -13.4758493321      -16.2077584700        9.0964868879  MEMB      23              0.0000000000
      2509        23  SAPS      H9X           -12.8664628170      -17.1299849017        8.9424569951  MEMB      23              0.0000000000
      2510        23  SAPS      H9Y           -12.9768575553      -15.5743434691        9.8582016231  MEMB      23              0.0000000000
      2511        23  SAPS      C310          -13.6324584906      -15.5104616439        7.7425878358  MEMB      23              0.0000000000
      2512        23  SAPS      H10X          -14.0084279182      -14.4802438011        7.8980820860  MEMB      23              0.0000000000
      2513        23  SAPS      H10Y          -14.3908486417      -16.0304660538        7.1110764178  MEMB      23              0.0000000000
      2514        23  SAPS      C311          -12.3506615022      -15.5350310501        6.9307412702  MEMB      23              0.0000000000
      2515        23  SAPS      H11X          -12.0632645594      -16.5903643572        6.7270654344  MEMB      23              0.0000000000
      2516        23  SAPS      H11Y          -11.5524566224      -15.0575994536        7.5424017697  MEMB      23              0.0000000000
      2517        23  SAPS      C312          -12.5272682918      -14.7808270617        5.6116492208  MEMB      23              0.0000000000
      2518        23  SAPS      H12X          -12.5896222136      -13.7186285667        5.9215220004  MEMB      23              0.0000000000
      2519        23  SAPS      H12Y          -13.4975926060      -15.0347703267        5.1313117502  MEMB      23              0.0000000000
      2520        23  SAPS      C313          -11.3824458143      -15.0005882968        4.6068712321  MEMB      23              0.0000000000
      2521        23  SAPS      H13X          -11.3711447836      -14.1733072135        3.8712467006  MEMB      23              0.0000000000
      2522        23  SAPS      H13Y          -11.5795173936      -15.9336136154        4.0317479162  MEMB      23              0.0000000000
      2523        23  SAPS      C314          -10.0276993287      -15.1390965533        5.3212891468  MEMB      23              0.0000000000
      2524        23  SAPS      H14X           -9.9870811508      -16.1858347372        5.6486497257  MEMB      23              0.0000000000
      2525        23  SAPS      H14Y          -10.0183007074      -14.5049487061        6.2349527267  MEMB      23              0.0000000000
      2526        23  SAPS      C315           -8.7374112010      -14.7893040387        4.5642032630  MEMB      23              0.0000000000
      2527        23  SAPS      H15X           -7.8817778838      -15.0554494672        5.2277398149  MEMB      23              0.0000000000
      2528        23  SAPS      H15Y           -8.7051056678      -13.6917659222        4.4159871960  MEMB      23              0.0000000000
      2529        23  SAPS      C316           -8.5428734808      -15.4565895916        3.2017892714  MEMB      23              0.0000000000
      2530        23  SAPS      H16X           -8.4563162465      -14.6736529826        2.4170096335  MEMB      23              0.0000000000
      2531        23  SAPS      H16Y           -9.4778342430      -15.9924872638        2.9676520200  MEMB      23              0.0000000000
      2532        23  SAPS      C317           -7.2877660246      -16.3542635648        3.1376482330  MEMB      23              0.0000000000
      2533        23  SAPS      H17X           -7.4979358043      -17.3185878807        3.6549773528  MEMB      23              0.0000000000
      2534        23  SAPS      H17Y           -6.4622564828      -15.8595719664        3.7001536813  MEMB      23              0.0000000000
      2535        23  SAPS      C318           -6.7778483018      -16.6317638289        1.7160840109  MEMB      23              0.0000000000
      2536        23  SAPS      H18X           -7.5962026220      -16.5148502425        0.9742891054  MEMB      23              0.0000000000
      2537        23  SAPS      H18Y           -6.3754779572      -17.6635558042        1.6307370846  MEMB      23              0.0000000000
      2538        23  SAPS      H18Z           -5.9629389451      -15.9323690366        1.4387622233  MEMB      23              0.0000000000
      2539        24  CHL1      C3             20.3526154459       -3.0017152218       17.4524801973  MEMB      24              0.0000000000
      2540        24  CHL1      H3             20.4287658124       -4.0949286373       17.2383277265  MEMB      24              0.0000000000
      2541        24  CHL1      O3             20.3162869805       -2.7881625146       18.8492479827  MEMB      24              0.0000000000
      2542        24  CHL1      H3'            20.8311154730       -1.9796469129       18.9671376895  MEMB      24              0.0000000000
      2543        24  CHL1      C4             21.6031052254       -2.2923007576       16.9157074416  MEMB      24              0.0000000000
      2544        24  CHL1      H4A            21.5690588316       -1.2166160640       17.1949917971  MEMB      24              0.0000000000
      2545        24  CHL1      H4B            22.5067204441       -2.7130730191       17.4103783425  MEMB      24              0.0000000000
      2546        24  CHL1      C5             21.6791768384       -2.4182609197       15.4174545572  MEMB      24              0.0000000000
      2547        24  CHL1      C6             22.7571967212       -2.9186969255       14.7841407013  MEMB      24              0.0000000000
      2548        24  CHL1      H6             23.6351646035       -3.2673252114       15.3550452109  MEMB      24              0.0000000000
      2549        24  CHL1      C7             22.8842141403       -2.9326808519       13.2876108286  MEMB      24              0.0000000000
      2550        24  CHL1      H7A            23.8823383965       -2.5682287678       12.9587592983  MEMB      24              0.0000000000
      2551        24  CHL1      H7B            22.7942363791       -3.9594181275       12.9092730992  MEMB      24              0.0000000000
      2552        24  CHL1      C8             21.7909596593       -2.1026350382       12.5760464603  MEMB      24              0.0000000000
      2553        24  CHL1      H8             22.0716837595       -1.0386328430       12.7065784306  MEMB      24              0.0000000000
      2554        24  CHL1      C14            21.6668780252       -2.5426748967       11.1246313682  MEMB      24              0.0000000000
      2555        24  CHL1      H14            21.1796473979       -3.5517765921       11.1322103793  MEMB      24              0.0000000000
      2556        24  CHL1      C15            22.9453796560       -2.7066313934       10.2967296804  MEMB      24              0.0000000000
      2557        24  CHL1      H15A           23.5118939880       -1.7726384693       10.4422963297  MEMB      24              0.0000000000
      2558        24  CHL1      H15B           23.5656206490       -3.5592236319       10.6099821906  MEMB      24              0.0000000000
      2559        24  CHL1      C16            22.4520476519       -2.7736404712        8.8411154616  MEMB      24              0.0000000000
      2560        24  CHL1      H16A           23.0769182435       -2.1070925158        8.2122860235  MEMB      24              0.0000000000
      2561        24  CHL1      H16B           22.5052299132       -3.8102158588        8.4476301463  MEMB      24              0.0000000000
      2562        24  CHL1      C17            20.9649160546       -2.2899719521        8.8910407226  MEMB      24              0.0000000000
      2563        24  CHL1      H17            20.3507050839       -3.2218592552        8.8996790355  MEMB      24              0.0000000000
      2564        24  CHL1      C13            20.8040150358       -1.6341624967       10.2823184031  MEMB      24              0.0000000000
      2565        24  CHL1      C18            21.4762280524       -0.2348136364       10.1826991099  MEMB      24              0.0000000000
      2566        24  CHL1      H18A           22.2719493108       -0.2063057451        9.4136254197  MEMB      24              0.0000000000
      2567        24  CHL1      H18B           20.7243406224        0.5427731150        9.9506995072  MEMB      24              0.0000000000
      2568        24  CHL1      H18C           21.9718608270        0.0471882286       11.1225635444  MEMB      24              0.0000000000
      2569        24  CHL1      C12            19.3755734972       -1.5861968671       10.8664800522  MEMB      24              0.0000000000
      2570        24  CHL1      H12A           18.9277521549       -0.6034262655       10.5947441852  MEMB      24              0.0000000000
      2571        24  CHL1      H12B           18.7595971363       -2.3816428364       10.3978427261  MEMB      24              0.0000000000
      2572        24  CHL1      C11            19.2324919390       -1.7051300551       12.3982674394  MEMB      24              0.0000000000
      2573        24  CHL1      H11A           18.9680213986       -0.6939479736       12.7543953127  MEMB      24              0.0000000000
      2574        24  CHL1      H11B           18.3436564040       -2.3437878983       12.6012972441  MEMB      24              0.0000000000
      2575        24  CHL1      C9             20.4244210934       -2.2943180410       13.2113705246  MEMB      24              0.0000000000
      2576        24  CHL1      H9             20.2685166987       -3.4034609477       13.1661350545  MEMB      24              0.0000000000
      2577        24  CHL1      C10            20.3971509954       -1.9284188664       14.7130506198  MEMB      24              0.0000000000
      2578        24  CHL1      C19            20.3596196408       -0.3984658475       14.9752436482  MEMB      24              0.0000000000
      2579        24  CHL1      H19A           19.5705980128        0.1304314954       14.4126004632  MEMB      24              0.0000000000
      2580        24  CHL1      H19B           20.1635892308       -0.1512647808       16.0356375668  MEMB      24              0.0000000000
      2581        24  CHL1      H19C           21.3286407092        0.0535221455       14.7163432372  MEMB      24              0.0000000000
      2582        24  CHL1      C1             19.1116945217       -2.5568753216       15.3066000881  MEMB      24              0.0000000000
      2583        24  CHL1      H1A            18.2234853598       -2.0436573210       14.8720567112  MEMB      24              0.0000000000
      2584        24  CHL1      H1B            19.0575959899       -3.6251339555       15.0058475104  MEMB      24              0.0000000000
      2585        24  CHL1      C2             19.0543341818       -2.4655907132       16.8340312490  MEMB      24              0.0000000000
      2586        24  CHL1      H2A            18.1774764648       -3.0389804344       17.2021520115  MEMB      24              0.0000000000
      2587        24  CHL1      H2B            18.9021059055       -1.4051792128       17.1299133901  MEMB      24              0.0000000000
      2588        24  CHL1      C20            20.4940545750       -1.4315868693        7.7103237285  MEMB      24              0.0000000000
      2589        24  CHL1      H20            20.9619593999       -0.4237653058        7.7644027148  MEMB      24              0.0000000000
      2590        24  CHL1      C21            18.9590814360       -1.3003486312        7.8150746825  MEMB      24              0.0000000000
      2591        24  CHL1      H21A           18.5096958424       -2.2826070963        8.0712214104  MEMB      24              0.0000000000
      2592        24  CHL1      H21B           18.4937979349       -0.9573577112        6.8743231249  MEMB      24              0.0000000000
      2593        24  CHL1      H21C           18.6902681431       -0.5636522373        8.5914429396  MEMB      24              0.0000000000
      2594        24  CHL1      C22            20.8351430415       -1.9638846857        6.3032573742  MEMB      24              0.0000000000
      2595        24  CHL1      H22A           21.8583663528       -2.3862948060        6.2477725715  MEMB      24              0.0000000000
      2596        24  CHL1      H22B           20.0825038110       -2.7660397212        6.1460335721  MEMB      24              0.0000000000
      2597        24  CHL1      C23            20.6702951497       -0.8423438909        5.2566905037  MEMB      24              0.0000000000
      2598        24  CHL1      H23A           19.5823182918       -0.6079099715        5.2172730506  MEMB      24              0.0000000000
      2599        24  CHL1      H23B           21.1321456677        0.0620694261        5.6810754497  MEMB      24              0.0000000000
      2600        24  CHL1      C24            21.0350356112       -1.0098662075        3.7577850288  MEMB      24              0.0000000000
      2601        24  CHL1      H24A           20.1977863064       -1.5822480674        3.3227524002  MEMB      24              0.0000000000
      2602        24  CHL1      H24B           20.8613940264       -0.0205121299        3.3023197319  MEMB      24              0.0000000000
      2603        24  CHL1      C25            22.3956534055       -1.5831079450        3.2244137720  MEMB      24              0.0000000000
      2604        24  CHL1      H25            22.4336015732       -2.6661251721        3.4655562436  MEMB      24              0.0000000000
      2605        24  CHL1      C26            22.4405448186       -1.4662290092        1.6895682017  MEMB      24              0.0000000000
      2606        24  CHL1      H26A           22.1278725402       -0.4653269991        1.3480611870  MEMB      24              0.0000000000
      2607        24  CHL1      H26B           23.4418498105       -1.6980320994        1.2687589691  MEMB      24              0.0000000000
      2608        24  CHL1      H26C           21.7106108360       -2.1658798920        1.2631937047  MEMB      24              0.0000000000
      2609        24  CHL1      C27            23.7036489708       -1.0547948882        3.8106966418  MEMB      24              0.0000000000
      2610        24  CHL1      H27A           24.5537188615       -1.6989836592        3.5029488297  MEMB      24              0.0000000000
      2611        24  CHL1      H27B           23.9214141193       -0.0277003875        3.4504763782  MEMB      24              0.0000000000
      2612        24  CHL1      H27C           23.6412785189       -1.0754973269        4.9186683256  MEMB      24              0.0000000000
      2613        25  SAPC      N              15.7952825091        9.6732187199       20.5238935755  MEMB      25              0.0000000000
      2614        25  SAPC      C12            17.3170597971        9.7323249918       20.4527092134  MEMB      25              0.0000000000
      2615        25  SAPC      H12A           17.7138196294        8.7393074619       20.5739279188  MEMB      25              0.0000000000
      2616        25  SAPC      H12B           17.6796943788       10.3313181629       21.2871378858  MEMB      25              0.0000000000
      2617        25  SAPC      C13            15.3075275330        8.9920853287       21.7574218247  MEMB      25              0.0000000000
      2618        25  SAPC      H13A           15.7967226922        9.3727326242       22.6515587683  MEMB      25              0.0000000000
      2619        25  SAPC      H13B           14.2520211759        9.2265276636       21.8732441302  MEMB      25              0.0000000000
      2620        25  SAPC      H13C           15.4317374627        7.9175886194       21.7011370723  MEMB      25              0.0000000000
      2621        25  SAPC      C14            15.2861588743       11.0907180280       20.5685449804  MEMB      25              0.0000000000
      2622        25  SAPC      H14A           15.7834778435       11.6750122406       19.7873181966  MEMB      25              0.0000000000
      2623        25  SAPC      H14B           14.2209726701       11.1340940533       20.3790288004  MEMB      25              0.0000000000
      2624        25  SAPC      H14C           15.5327661905       11.5763763597       21.5045873890  MEMB      25              0.0000000000
      2625        25  SAPC      C15            15.2032141242        8.9915708108       19.3148247447  MEMB      25              0.0000000000
      2626        25  SAPC      H15A           15.4049102596        9.5865907527       18.4275747571  MEMB      25              0.0000000000
      2627        25  SAPC      H15B           15.6093967409        7.9977882122       19.1286191183  MEMB      25              0.0000000000
      2628        25  SAPC      H15C           14.1183612978        8.9051109224       19.4075656945  MEMB      25              0.0000000000
      2629        25  SAPC      C11            17.9342124599       10.3623554082       19.1798942305  MEMB      25              0.0000000000
      2630        25  SAPC      H11A           17.5165020248        9.8714188169       18.2739012833  MEMB      25              0.0000000000
      2631        25  SAPC      H11B           19.0350295881       10.1949393077       19.1374212988  MEMB      25              0.0000000000
      2632        25  SAPC      P              18.4811939570       12.9059452158       19.6953361234  MEMB      25              0.0000000000
      2633        25  SAPC      O13            18.5006529432       13.9813193609       18.6914310846  MEMB      25              0.0000000000
      2634        25  SAPC      O14            18.0099218088       13.2544595583       21.0511902465  MEMB      25              0.0000000000
      2635        25  SAPC      O12            17.6150580821       11.7330509074       19.1188241974  MEMB      25              0.0000000000
      2636        25  SAPC      O11            19.9540536517       12.3064390717       19.8248644835  MEMB      25              0.0000000000
      2637        25  SAPC      C1             21.0439422714       13.1127784630       19.3369511164  MEMB      25              0.0000000000
      2638        25  SAPC      HA             20.7669541817       14.1809584778       19.1504708591  MEMB      25              0.0000000000
      2639        25  SAPC      HB             21.8450731045       13.1268814499       20.1068775143  MEMB      25              0.0000000000
      2640        25  SAPC      C2             21.6995411043       12.6615445352       17.9974858502  MEMB      25              0.0000000000
      2641        25  SAPC      HS             22.5547141931       13.3510101114       17.8360081920  MEMB      25              0.0000000000
      2642        25  SAPC      O21            20.7744188836       12.7556220746       16.9013110883  MEMB      25              0.0000000000
      2643        25  SAPC      C21            20.6136191265       13.9860423919       16.4169860485  MEMB      25              0.0000000000
      2644        25  SAPC      O22            21.2266283280       14.9773473808       16.7640164081  MEMB      25              0.0000000000
      2645        25  SAPC      C22            19.6934393496       13.9132484260       15.1934944222  MEMB      25              0.0000000000
      2646        25  SAPC      H2R            19.6397421572       14.9392210866       14.7896121014  MEMB      25              0.0000000000
      2647        25  SAPC      H2S            20.1972091239       13.2796249784       14.4341763799  MEMB      25              0.0000000000
      2648        25  SAPC      C3             22.2866456833       11.2099190568       18.0575064549  MEMB      25              0.0000000000
      2649        25  SAPC      HX             22.6608804172       11.0167121048       19.0842409610  MEMB      25              0.0000000000
      2650        25  SAPC      HY             23.2029924010       11.2144369216       17.4182642871  MEMB      25              0.0000000000
      2651        25  SAPC      O31            21.3370909374       10.1713956696       17.7097782698  MEMB      25              0.0000000000
      2652        25  SAPC      C31            21.4602692465        9.7299280691       16.4474098260  MEMB      25              0.0000000000
      2653        25  SAPC      O32            22.4013342413        9.9898979329       15.7172685148  MEMB      25              0.0000000000
      2654        25  SAPC      C32            20.2154612131        8.9594321103       16.0257746290  MEMB      25              0.0000000000
      2655        25  SAPC      H2X            19.3312658198        9.6143336070       16.1694902650  MEMB      25              0.0000000000
      2656        25  SAPC      H2Y            20.0903302867        8.0802581080       16.6866641425  MEMB      25              0.0000000000
      2657        25  SAPC      C23            18.2956633696       13.3274673628       15.5368420424  MEMB      25              0.0000000000
      2658        25  SAPC      H3R            17.7991595791       13.9946807835       16.2782808553  MEMB      25              0.0000000000
      2659        25  SAPC      H3S            18.4530178874       12.3488190399       16.0509685272  MEMB      25              0.0000000000
      2660        25  SAPC      C24            17.3181978353       13.0811832374       14.3580198575  MEMB      25              0.0000000000
      2661        25  SAPC      H4R            16.7792554699       13.9968447415       14.0601538686  MEMB      25              0.0000000000
      2662        25  SAPC      H4S            16.5098910770       12.4242963915       14.7603297591  MEMB      25              0.0000000000
      2663        25  SAPC      C25            17.9440750209       12.3947082671       13.1729178031  MEMB      25              0.0000000000
      2664        25  SAPC      H5R            18.0368504587       11.3360944020       13.3760124326  MEMB      25              0.0000000000
      2665        25  SAPC      C26            18.3809999974       12.8309855839       11.9695582247  MEMB      25              0.0000000000
      2666        25  SAPC      H6R            18.7891433512       12.0855269059       11.2649388543  MEMB      25              0.0000000000
      2667        25  SAPC      C27            18.3637772465       14.2354493934       11.4366268366  MEMB      25              0.0000000000
      2668        25  SAPC      H7R            19.3128348204       14.7383394090       11.7264056394  MEMB      25              0.0000000000
      2669        25  SAPC      H7S            17.5446497618       14.7838903781       11.9435673190  MEMB      25              0.0000000000
      2670        25  SAPC      C28            18.1221767829       14.4255107073        9.9579197697  MEMB      25              0.0000000000
      2671        25  SAPC      H8R            17.0672908921       14.6552539939        9.7459157730  MEMB      25              0.0000000000
      2672        25  SAPC      C29            18.9646544678       14.4190492954        8.9005980927  MEMB      25              0.0000000000
      2673        25  SAPC      H9R            18.5270318866       14.6445256096        7.9179028373  MEMB      25              0.0000000000
      2674        25  SAPC      C210           20.4547736551       14.2139660412        8.7968343832  MEMB      25              0.0000000000
      2675        25  SAPC      H10R           20.6857817883       13.9842959256        7.7250336112  MEMB      25              0.0000000000
      2676        25  SAPC      H10S           20.9733645441       15.1760731921        8.9817572682  MEMB      25              0.0000000000
      2677        25  SAPC      C211           21.0889425162       13.1261726517        9.6183661917  MEMB      25              0.0000000000
      2678        25  SAPC      H11R           21.4008632124       13.4352651918       10.6169402599  MEMB      25              0.0000000000
      2679        25  SAPC      C212           20.9743863430       11.8155319086        9.3782635568  MEMB      25              0.0000000000
      2680        25  SAPC      H12R           21.5092262451       11.0803435380       10.0035739069  MEMB      25              0.0000000000
      2681        25  SAPC      C213           20.1599677911       11.3077807485        8.2313577665  MEMB      25              0.0000000000
      2682        25  SAPC      H13R           19.8643898138       12.1152202184        7.5224493231  MEMB      25              0.0000000000
      2683        25  SAPC      H13S           19.2457130765       10.9826396777        8.7207101967  MEMB      25              0.0000000000
      2684        25  SAPC      C214           20.5757196956       10.0900798947        7.4937011760  MEMB      25              0.0000000000
      2685        25  SAPC      H14R           21.4902823595        9.5866361985        7.8440604970  MEMB      25              0.0000000000
      2686        25  SAPC      C215           19.9679641170        9.6895326143        6.3686328018  MEMB      25              0.0000000000
      2687        25  SAPC      H15R           20.4289286853        8.8695704404        5.8256715054  MEMB      25              0.0000000000
      2688        25  SAPC      C216           18.8090113314       10.3128238822        5.6129345446  MEMB      25              0.0000000000
      2689        25  SAPC      H16R           18.5952912979       11.3476835906        5.9514847282  MEMB      25              0.0000000000
      2690        25  SAPC      H16S           17.8878974245        9.7187933342        5.8007688017  MEMB      25              0.0000000000
      2691        25  SAPC      C217           19.1280710659       10.3844691791        4.0902667941  MEMB      25              0.0000000000
      2692        25  SAPC      H17R           20.1303239228        9.9397767208        3.9855179849  MEMB      25              0.0000000000
      2693        25  SAPC      H17S           18.4571332900        9.7510531094        3.4670137252  MEMB      25              0.0000000000
      2694        25  SAPC      C218           19.3076545418       11.8125763263        3.5060560989  MEMB      25              0.0000000000
      2695        25  SAPC      H18R           19.3747378443       12.5100962233        4.3653721839  MEMB      25              0.0000000000
      2696        25  SAPC      H18S           18.3693128342       12.0248775563        2.9719311964  MEMB      25              0.0000000000
      2697        25  SAPC      C219           20.5077979558       12.0039758105        2.5123236852  MEMB      25              0.0000000000
      2698        25  SAPC      H19R           20.1278694941       11.9031592864        1.4876095542  MEMB      25              0.0000000000
      2699        25  SAPC      H19S           21.1845014640       11.1330547454        2.6255360315  MEMB      25              0.0000000000
      2700        25  SAPC      C220           21.3965697967       13.2779518718        2.4988106417  MEMB      25              0.0000000000
      2701        25  SAPC      H20R           21.8786144013       13.3471691845        1.4963066044  MEMB      25              0.0000000000
      2702        25  SAPC      H20S           22.2550309163       13.2367041805        3.1926518796  MEMB      25              0.0000000000
      2703        25  SAPC      H20T           20.8406769364       14.2195606686        2.6813767586  MEMB      25              0.0000000000
      2704        25  SAPC      C33            20.2832093703        8.4900560633       14.5460103465  MEMB      25              0.0000000000
      2705        25  SAPC      H3X            19.6459085680        7.5787764616       14.4387111385  MEMB      25              0.0000000000
      2706        25  SAPC      H3Y            21.3116483015        8.2067566513       14.2410999993  MEMB      25              0.0000000000
      2707        25  SAPC      C34            19.7118953725        9.5693470676       13.6355873433  MEMB      25              0.0000000000
      2708        25  SAPC      H4X            20.2995942920       10.5068358627       13.7597166795  MEMB      25              0.0000000000
      2709        25  SAPC      H4Y            18.6879474444        9.7223945265       14.0497498020  MEMB      25              0.0000000000
      2710        25  SAPC      C35            19.5808977897        9.2134181922       12.1448367942  MEMB      25              0.0000000000
      2711        25  SAPC      H5X            20.0390105065        8.2152589723       11.9636583663  MEMB      25              0.0000000000
      2712        25  SAPC      H5Y            20.1406635883        9.9574950594       11.5336452011  MEMB      25              0.0000000000
      2713        25  SAPC      C36            18.1096964379        9.2021285357       11.6912047070  MEMB      25              0.0000000000
      2714        25  SAPC      H6X            17.6629060487       10.2092056677       11.7595673905  MEMB      25              0.0000000000
      2715        25  SAPC      H6Y            17.5350882568        8.5548108475       12.3878987322  MEMB      25              0.0000000000
      2716        25  SAPC      C37            17.9099736795        8.7331481647       10.2492775033  MEMB      25              0.0000000000
      2717        25  SAPC      H7X            18.3099847633        7.7026873461       10.2186778104  MEMB      25              0.0000000000
      2718        25  SAPC      H7Y            18.5468693183        9.3057571469        9.5534222733  MEMB      25              0.0000000000
      2719        25  SAPC      C38            16.4359750384        8.7832023619        9.7860007586  MEMB      25              0.0000000000
      2720        25  SAPC      H8X            15.8201061252        8.2730196411       10.5619903204  MEMB      25              0.0000000000
      2721        25  SAPC      H8Y            16.3373325756        8.1937396369        8.8467720617  MEMB      25              0.0000000000
      2722        25  SAPC      C39            15.8291025002       10.1915966846        9.5420062169  MEMB      25              0.0000000000
      2723        25  SAPC      H9X            15.9074361599       10.7885837274       10.4778573445  MEMB      25              0.0000000000
      2724        25  SAPC      H9Y            14.7495077328       10.0775717892        9.3023028303  MEMB      25              0.0000000000
      2725        25  SAPC      C310           16.4979340508       10.9999232072        8.4155994263  MEMB      25              0.0000000000
      2726        25  SAPC      H10X           16.6742528940       10.3686477391        7.5211186792  MEMB      25              0.0000000000
      2727        25  SAPC      H10Y           17.4587738661       11.3248746591        8.8410008051  MEMB      25              0.0000000000
      2728        25  SAPC      C311           15.8459585023       12.3396121630        8.0292854561  MEMB      25              0.0000000000
      2729        25  SAPC      H11X           15.8532423090       12.9556925086        8.9576285690  MEMB      25              0.0000000000
      2730        25  SAPC      H11Y           14.7957813847       12.2088990223        7.7053824107  MEMB      25              0.0000000000
      2731        25  SAPC      C312           16.6436101162       13.1154863407        6.9595453990  MEMB      25              0.0000000000
      2732        25  SAPC      H12X           17.7257391664       12.8762628072        7.0512438437  MEMB      25              0.0000000000
      2733        25  SAPC      H12Y           16.5296432549       14.2063495653        7.1456162148  MEMB      25              0.0000000000
      2734        25  SAPC      C313           16.2035727586       12.8459306043        5.5195025712  MEMB      25              0.0000000000
      2735        25  SAPC      H13X           15.0948210886       12.8238421010        5.4697325643  MEMB      25              0.0000000000
      2736        25  SAPC      H13Y           16.5697987665       11.8402741306        5.2144072066  MEMB      25              0.0000000000
      2737        25  SAPC      C314           16.7196333989       13.9053227853        4.5307943563  MEMB      25              0.0000000000
      2738        25  SAPC      H14X           17.8283826432       13.9652013335        4.6096775461  MEMB      25              0.0000000000
      2739        25  SAPC      H14Y           16.3090396348       14.9041822853        4.7916805055  MEMB      25              0.0000000000
      2740        25  SAPC      C315           16.3345663151       13.5553122470        3.0883448928  MEMB      25              0.0000000000
      2741        25  SAPC      H15X           15.2877108316       13.8689626937        2.8895324373  MEMB      25              0.0000000000
      2742        25  SAPC      H15Y           16.3490550782       12.4450828860        2.9981945944  MEMB      25              0.0000000000
      2743        25  SAPC      C316           17.2818513496       14.1438312289        2.0270305305  MEMB      25              0.0000000000
      2744        25  SAPC      H16X           18.3450789544       13.9855759869        2.3014273145  MEMB      25              0.0000000000
      2745        25  SAPC      H16Y           17.1253706231       15.2441398597        1.9912896276  MEMB      25              0.0000000000
      2746        25  SAPC      C317           17.0319479749       13.5300500399        0.6398976334  MEMB      25              0.0000000000
      2747        25  SAPC      H17X           17.4051825926       14.2134757027       -0.1471896605  MEMB      25              0.0000000000
      2748        25  SAPC      H17Y           15.9342738472       13.4824250033        0.5397666746  MEMB      25              0.0000000000
      2749        25  SAPC      C318           17.6168852066       12.1357526237        0.3724562263  MEMB      25              0.0000000000
      2750        25  SAPC      H18X           18.7101940898       12.1813937496        0.2994661515  MEMB      25              0.0000000000
      2751        25  SAPC      H18Y           17.2746182554       11.7339044624       -0.6011843788  MEMB      25              0.0000000000
      2752        25  SAPC      H18Z           17.3270652062       11.4147446783        1.1657395897  MEMB      25              0.0000000000
      2753        26  CHL1      C3             11.9136515565       17.3456293789       17.3326796876  MEMB      26              0.0000000000
      2754        26  CHL1      H3             12.7002885740       16.5536405564       17.3433842939  MEMB      26              0.0000000000
      2755        26  CHL1      O3             11.7181649028       17.8395335699       18.6443782546  MEMB      26              0.0000000000
      2756        26  CHL1      H3'            12.6028378855       17.8396317117       19.0674710055  MEMB      26              0.0000000000
      2757        26  CHL1      C4             12.3530716715       18.5297764376       16.4550921893  MEMB      26              0.0000000000
      2758        26  CHL1      H4A            11.6614880747       19.3732919016       16.6636678016  MEMB      26              0.0000000000
      2759        26  CHL1      H4B            13.3546787557       18.8559396227       16.8203176067  MEMB      26              0.0000000000
      2760        26  CHL1      C5             12.3486407314       18.2454384911       14.9677879754  MEMB      26              0.0000000000
      2761        26  CHL1      C6             13.4017344479       18.5358965750       14.1879292297  MEMB      26              0.0000000000
      2762        26  CHL1      H6             14.2640710870       19.0526151094       14.6372891711  MEMB      26              0.0000000000
      2763        26  CHL1      C7             13.4416769051       18.3095915570       12.6990065906  MEMB      26              0.0000000000
      2764        26  CHL1      H7A            13.8701830274       19.1924629431       12.1783059815  MEMB      26              0.0000000000
      2765        26  CHL1      H7B            14.1063886272       17.4447545945       12.4785441787  MEMB      26              0.0000000000
      2766        26  CHL1      C8             12.0398754928       18.0080160306       12.0967731429  MEMB      26              0.0000000000
      2767        26  CHL1      H8             11.4894023475       18.9715418740       12.0336851383  MEMB      26              0.0000000000
      2768        26  CHL1      C14            12.1572075999       17.4046880132       10.6961881537  MEMB      26              0.0000000000
      2769        26  CHL1      H14            12.6964785998       16.4317633760       10.8276155588  MEMB      26              0.0000000000
      2770        26  CHL1      C15            12.9713358209       18.1680268870        9.6351853996  MEMB      26              0.0000000000
      2771        26  CHL1      H15A           12.7202095483       19.2489453218        9.6829620505  MEMB      26              0.0000000000
      2772        26  CHL1      H15B           14.0626715082       18.0484830467        9.7864455486  MEMB      26              0.0000000000
      2773        26  CHL1      C16            12.4858238232       17.5729151353        8.2986788322  MEMB      26              0.0000000000
      2774        26  CHL1      H16A           12.1398435718       18.4021054842        7.6440828543  MEMB      26              0.0000000000
      2775        26  CHL1      H16B           13.2936194467       17.0198941458        7.7782952706  MEMB      26              0.0000000000
      2776        26  CHL1      C17            11.2915292240       16.6130168508        8.6257018874  MEMB      26              0.0000000000
      2777        26  CHL1      H17            11.7314224750       15.5960044696        8.7549029017  MEMB      26              0.0000000000
      2778        26  CHL1      C13            10.8221549546       17.0527219739       10.0323939879  MEMB      26              0.0000000000
      2779        26  CHL1      C18             9.9558545643       18.3322970964        9.8700964571  MEMB      26              0.0000000000
      2780        26  CHL1      H18A            9.6973495652       18.7917818534       10.8414828479  MEMB      26              0.0000000000
      2781        26  CHL1      H18B           10.4898315900       19.0949371705        9.2711005921  MEMB      26              0.0000000000
      2782        26  CHL1      H18C            9.0053193108       18.0972660234        9.3527130244  MEMB      26              0.0000000000
      2783        26  CHL1      C12            10.1648805768       15.9823106028       10.9258910814  MEMB      26              0.0000000000
      2784        26  CHL1      H12A            9.1896071786       15.6330075467       10.5512055795  MEMB      26              0.0000000000
      2785        26  CHL1      H12B           10.8371019531       15.0976311104       10.9759412628  MEMB      26              0.0000000000
      2786        26  CHL1      C11             9.9528937475       16.5205127678       12.3471122196  MEMB      26              0.0000000000
      2787        26  CHL1      H11A            9.2154977702       17.3448891504       12.2937056851  MEMB      26              0.0000000000
      2788        26  CHL1      H11B            9.5069189568       15.7078214252       12.9559344229  MEMB      26              0.0000000000
      2789        26  CHL1      C9             11.2631833788       17.0381162120       13.0004028793  MEMB      26              0.0000000000
      2790        26  CHL1      H9             11.9216150264       16.1372498887       13.0853655509  MEMB      26              0.0000000000
      2791        26  CHL1      C10            11.0724224841       17.5673248219       14.4435885657  MEMB      26              0.0000000000
      2792        26  CHL1      C19             9.9652083339       18.6541929269       14.4514064880  MEMB      26              0.0000000000
      2793        26  CHL1      H19A            9.8966047177       19.1679849783       15.4313290407  MEMB      26              0.0000000000
      2794        26  CHL1      H19B           10.1543110407       19.4240917901       13.6776139435  MEMB      26              0.0000000000
      2795        26  CHL1      H19C            8.9723652765       18.1988660341       14.2683722203  MEMB      26              0.0000000000
      2796        26  CHL1      C1             10.6502050513       16.3827681079       15.3597106576  MEMB      26              0.0000000000
      2797        26  CHL1      H1A             9.6457343477       16.0230325334       15.0504318833  MEMB      26              0.0000000000
      2798        26  CHL1      H1B            11.3674558776       15.5452226473       15.2204650838  MEMB      26              0.0000000000
      2799        26  CHL1      C2             10.5941375068       16.7296328917       16.8550895403  MEMB      26              0.0000000000
      2800        26  CHL1      H2A            10.3617529822       15.8162807643       17.4462295051  MEMB      26              0.0000000000
      2801        26  CHL1      H2B             9.7730815543       17.4594638011       17.0328343349  MEMB      26              0.0000000000
      2802        26  CHL1      C20            10.2505776562       16.5094101195        7.4863241588  MEMB      26              0.0000000000
      2803        26  CHL1      H20             9.7624839886       17.5027215439        7.3529592743  MEMB      26              0.0000000000
      2804        26  CHL1      C21             9.1591636620       15.4751913932        7.8481959378  MEMB      26              0.0000000000
      2805        26  CHL1      H21A            8.4417939139       15.3356002140        7.0160766458  MEMB      26              0.0000000000
      2806        26  CHL1      H21B            8.5560699059       15.8233200919        8.7044231332  MEMB      26              0.0000000000
      2807        26  CHL1      H21C            9.6111679873       14.4904484523        8.0903161979  MEMB      26              0.0000000000
      2808        26  CHL1      C22            10.8920597908       16.1406996089        6.1180260490  MEMB      26              0.0000000000
      2809        26  CHL1      H22A           11.7340608850       16.8364333828        5.9057721952  MEMB      26              0.0000000000
      2810        26  CHL1      H22B           11.3090284881       15.1112942446        6.1851222931  MEMB      26              0.0000000000
      2811        26  CHL1      C23             9.9355348259       16.2294978941        4.9071739283  MEMB      26              0.0000000000
      2812        26  CHL1      H23A            9.0730053356       15.5420151070        5.0413719673  MEMB      26              0.0000000000
      2813        26  CHL1      H23B            9.5427515291       17.2696267197        4.8570401980  MEMB      26              0.0000000000
      2814        26  CHL1      C24            10.6323030414       15.8697266211        3.5800964025  MEMB      26              0.0000000000
      2815        26  CHL1      H24A           11.4800295653       16.5652768167        3.4195390571  MEMB      26              0.0000000000
      2816        26  CHL1      H24B           11.0588319045       14.8457313240        3.6803297789  MEMB      26              0.0000000000
      2817        26  CHL1      C25             9.7346385132       15.8863437590        2.3185641573  MEMB      26              0.0000000000
      2818        26  CHL1      H25             8.9734273891       15.0763662725        2.4351731450  MEMB      26              0.0000000000
      2819        26  CHL1      C26             8.9881881872       17.2172776713        2.1236824291  MEMB      26              0.0000000000
      2820        26  CHL1      H26A            8.3682485577       17.1784597681        1.2022740657  MEMB      26              0.0000000000
      2821        26  CHL1      H26B            8.3173114019       17.4244479153        2.9829522765  MEMB      26              0.0000000000
      2822        26  CHL1      H26C            9.7085609783       18.0555469843        2.0264865405  MEMB      26              0.0000000000
      2823        26  CHL1      C27            10.5724146416       15.5840136710        1.0624566461  MEMB      26              0.0000000000
      2824        26  CHL1      H27A           11.1449128344       14.6410114863        1.1870716975  MEMB      26              0.0000000000
      2825        26  CHL1      H27B            9.9156469124       15.4841073351        0.1721371525  MEMB      26              0.0000000000
      2826        26  CHL1      H27C           11.2899956119       16.4116728208        0.8749744172  MEMB      26              0.0000000000
      2827        27  SAPI      C12           -20.2356025004       -8.9099422720       24.3068787047  MEMB      27              0.0000000000
      2828        27  SAPI      H2            -19.3247938505       -9.5557404599       24.3287656500  MEMB      27              0.0000000000
      2829        27  SAPI      O2            -21.3992161712       -9.7513793173       24.2643562013  MEMB      27              0.0000000000
      2830        27  SAPI      HO2           -22.0802320302       -9.2642038180       24.7304605385  MEMB      27              0.0000000000
      2831        27  SAPI      C13           -20.2174704567       -8.0719418779       25.5825374197  MEMB      27              0.0000000000
      2832        27  SAPI      H3            -19.3067684471       -7.4241623528       25.5652220250  MEMB      27              0.0000000000
      2833        27  SAPI      O3            -20.1416906013       -8.8820239535       26.7619546303  MEMB      27              0.0000000000
      2834        27  SAPI      HO3           -19.8694553673       -8.3291997227       27.5032775818  MEMB      27              0.0000000000
      2835        27  SAPI      C14           -21.4432839306       -7.1765335758       25.6024849749  MEMB      27              0.0000000000
      2836        27  SAPI      H4            -22.3611051015       -7.8016823868       25.5491308072  MEMB      27              0.0000000000
      2837        27  SAPI      O4            -21.5544473142       -6.4924530793       26.8421216081  MEMB      27              0.0000000000
      2838        27  SAPI      HO4           -21.6829558555       -7.1526004714       27.5371168473  MEMB      27              0.0000000000
      2839        27  SAPI      C15           -21.4302037264       -6.2467922952       24.3980528954  MEMB      27              0.0000000000
      2840        27  SAPI      H5            -20.5124356339       -5.6124422659       24.4444014140  MEMB      27              0.0000000000
      2841        27  SAPI      O5            -22.5661386335       -5.3607482533       24.4444463917  MEMB      27              0.0000000000
      2842        27  SAPI      HO5           -23.2281774893       -5.7265556105       25.0535839705  MEMB      27              0.0000000000
      2843        27  SAPI      C16           -21.3703328138       -7.0552660247       23.0905435102  MEMB      27              0.0000000000
      2844        27  SAPI      H6            -22.2907716063       -7.6767096807       23.0110669167  MEMB      27              0.0000000000
      2845        27  SAPI      O6            -21.3793373152       -6.1642769823       21.9688107166  MEMB      27              0.0000000000
      2846        27  SAPI      HO6           -22.2604735719       -6.2893015434       21.5797409762  MEMB      27              0.0000000000
      2847        27  SAPI      C11           -20.1510313675       -7.9898369595       23.0902527309  MEMB      27              0.0000000000
      2848        27  SAPI      H1            -19.2425847554       -7.3433431027       23.2036368816  MEMB      27              0.0000000000
      2849        27  SAPI      P             -18.8030351745       -9.7446680543       21.4554992460  MEMB      27              0.0000000000
      2850        27  SAPI      O13           -18.8240087538      -11.0794703171       22.0985691959  MEMB      27              0.0000000000
      2851        27  SAPI      O14           -17.4862359318       -9.0859061609       21.5322237810  MEMB      27              0.0000000000
      2852        27  SAPI      O12           -20.0232078789       -8.6853981061       21.8488900371  MEMB      27              0.0000000000
      2853        27  SAPI      O11           -19.1127414833      -10.0202241040       19.9285678385  MEMB      27              0.0000000000
      2854        27  SAPI      C1            -19.2179650081       -8.8139418902       19.1353866969  MEMB      27              0.0000000000
      2855        27  SAPI      HA            -20.2885708995       -8.5363513664       19.0202692852  MEMB      27              0.0000000000
      2856        27  SAPI      HB            -18.7055638447       -7.9179040088       19.5798271986  MEMB      27              0.0000000000
      2857        27  SAPI      C2            -18.5685588951       -8.9529814139       17.7392705991  MEMB      27              0.0000000000
      2858        27  SAPI      HS            -18.8292866972       -8.0164843252       17.1909843188  MEMB      27              0.0000000000
      2859        27  SAPI      O21           -19.0330415586      -10.1108367509       17.0251876038  MEMB      27              0.0000000000
      2860        27  SAPI      C21           -20.2749015067      -10.0363996697       16.5890562985  MEMB      27              0.0000000000
      2861        27  SAPI      O22           -21.0469916844       -9.1055027946       16.7352462943  MEMB      27              0.0000000000
      2862        27  SAPI      C22           -20.6383244366      -11.3476222337       15.9102289048  MEMB      27              0.0000000000
      2863        27  SAPI      H2R           -19.9162547557      -12.1362800738       16.2017025013  MEMB      27              0.0000000000
      2864        27  SAPI      H2S           -21.6283827072      -11.5829882407       16.3320897032  MEMB      27              0.0000000000
      2865        27  SAPI      C3            -17.0101929277       -9.0161347406       17.8031338970  MEMB      27              0.0000000000
      2866        27  SAPI      HX            -16.7538137836       -9.7623839033       18.5871430777  MEMB      27              0.0000000000
      2867        27  SAPI      HY            -16.6005286107       -8.0381587878       18.1329227282  MEMB      27              0.0000000000
      2868        27  SAPI      O31           -16.3823193845       -9.4499444473       16.5786349947  MEMB      27              0.0000000000
      2869        27  SAPI      C31           -16.7821640087       -8.8822947676       15.4496806301  MEMB      27              0.0000000000
      2870        27  SAPI      O32           -17.5353047989       -7.9340522265       15.3225349785  MEMB      27              0.0000000000
      2871        27  SAPI      C32           -16.2066854829       -9.6291733541       14.2686052759  MEMB      27              0.0000000000
      2872        27  SAPI      H2X           -16.6831538360      -10.6317958370       14.2436699247  MEMB      27              0.0000000000
      2873        27  SAPI      H2Y           -15.1146757926       -9.7518307458       14.4138181796  MEMB      27              0.0000000000
      2874        27  SAPI      C23           -20.8450313767      -11.3388394909       14.3811480128  MEMB      27              0.0000000000
      2875        27  SAPI      H3R           -21.4482919750      -10.4647220385       14.0576729655  MEMB      27              0.0000000000
      2876        27  SAPI      H3S           -21.4247183253      -12.2618978242       14.1448741944  MEMB      27              0.0000000000
      2877        27  SAPI      C24           -19.5368144590      -11.4423136291       13.5952965955  MEMB      27              0.0000000000
      2878        27  SAPI      H4R           -18.9606620049      -12.3182708820       13.9797425362  MEMB      27              0.0000000000
      2879        27  SAPI      H4S           -18.9315611189      -10.5326517896       13.8010148603  MEMB      27              0.0000000000
      2880        27  SAPI      C25           -19.8238683078      -11.6175584000       12.1245147173  MEMB      27              0.0000000000
      2881        27  SAPI      H5R           -19.6393786684      -12.6337843241       11.7342907046  MEMB      27              0.0000000000
      2882        27  SAPI      C26           -20.2051610547      -10.6448674466       11.2689122963  MEMB      27              0.0000000000
      2883        27  SAPI      H6R           -20.3367969591      -10.9064315428       10.2076160348  MEMB      27              0.0000000000
      2884        27  SAPI      C27           -20.4307805219       -9.1811913070       11.5823947998  MEMB      27              0.0000000000
      2885        27  SAPI      H7R           -19.7489254254       -8.5560006673       10.9637099403  MEMB      27              0.0000000000
      2886        27  SAPI      H7S           -20.1853700225       -8.9364134940       12.6427779247  MEMB      27              0.0000000000
      2887        27  SAPI      C28           -21.8702007464       -8.8255312295       11.3063262630  MEMB      27              0.0000000000
      2888        27  SAPI      H8R           -22.5394821676       -8.9640324225       12.1690794638  MEMB      27              0.0000000000
      2889        27  SAPI      C29           -22.4207287852       -8.3700493256       10.1635948487  MEMB      27              0.0000000000
      2890        27  SAPI      H9R           -23.5101717451       -8.2317411035       10.1603480304  MEMB      27              0.0000000000
      2891        27  SAPI      C210          -21.7773104310       -8.0777580286        8.8293914734  MEMB      27              0.0000000000
      2892        27  SAPI      H10R          -20.6677825406       -8.0560578222        8.8963298584  MEMB      27              0.0000000000
      2893        27  SAPI      H10S          -22.1013100154       -7.0603565157        8.5311894784  MEMB      27              0.0000000000
      2894        27  SAPI      C211          -22.2148356528       -9.0355643136        7.7534772490  MEMB      27              0.0000000000
      2895        27  SAPI      H11R          -23.1847719390       -9.5112148319        7.9418183884  MEMB      27              0.0000000000
      2896        27  SAPI      C212          -21.6495091868       -9.2060766473        6.5437740337  MEMB      27              0.0000000000
      2897        27  SAPI      H12R          -22.0994865979       -9.9130999758        5.8251735569  MEMB      27              0.0000000000
      2898        27  SAPI      C213          -20.4602806725       -8.4545518453        6.0221408469  MEMB      27              0.0000000000
      2899        27  SAPI      H13R          -20.6041696348       -7.4100535188        6.3469705246  MEMB      27              0.0000000000
      2900        27  SAPI      H13S          -20.5660067094       -8.4355351470        4.9204447109  MEMB      27              0.0000000000
      2901        27  SAPI      C214          -19.0362981439       -8.7750701371        6.3929430044  MEMB      27              0.0000000000
      2902        27  SAPI      H14R          -18.8678126784       -9.4382796595        7.2587268958  MEMB      27              0.0000000000
      2903        27  SAPI      C215          -17.9915151323       -8.2794211424        5.7000487960  MEMB      27              0.0000000000
      2904        27  SAPI      H15R          -16.9683372537       -8.5148701033        6.0291724226  MEMB      27              0.0000000000
      2905        27  SAPI      C216          -18.0905140430       -7.3711568284        4.4891729387  MEMB      27              0.0000000000
      2906        27  SAPI      H16R          -17.9554952419       -6.3073573454        4.7790531231  MEMB      27              0.0000000000
      2907        27  SAPI      H16S          -19.0814589431       -7.4420574645        3.9875784218  MEMB      27              0.0000000000
      2908        27  SAPI      C217          -17.0627495092       -7.7478457118        3.4083574325  MEMB      27              0.0000000000
      2909        27  SAPI      H17R          -17.1313518142       -8.8432912779        3.2580830146  MEMB      27              0.0000000000
      2910        27  SAPI      H17S          -16.0431055497       -7.5286444461        3.7835897041  MEMB      27              0.0000000000
      2911        27  SAPI      C218          -17.3075023898       -7.0462942152        2.0567998821  MEMB      27              0.0000000000
      2912        27  SAPI      H18R          -17.0699664537       -5.9683047099        2.1512385834  MEMB      27              0.0000000000
      2913        27  SAPI      H18S          -18.3835746407       -7.0891604585        1.8038797580  MEMB      27              0.0000000000
      2914        27  SAPI      C219          -16.5377032684       -7.6513308701        0.8684527087  MEMB      27              0.0000000000
      2915        27  SAPI      H19R          -15.4584395470       -7.4403096780        1.0060727312  MEMB      27              0.0000000000
      2916        27  SAPI      H19S          -16.8424900352       -7.1170145400       -0.0590313078  MEMB      27              0.0000000000
      2917        27  SAPI      C220          -16.7558493425       -9.1557013921        0.6624061041  MEMB      27              0.0000000000
      2918        27  SAPI      H20R          -17.8189897987       -9.3545859783        0.4138356556  MEMB      27              0.0000000000
      2919        27  SAPI      H20S          -16.4825174922       -9.7349650759        1.5678390613  MEMB      27              0.0000000000
      2920        27  SAPI      H20T          -16.1293218423       -9.5580075462       -0.1518728981  MEMB      27              0.0000000000
      2921        27  SAPI      C33           -16.5288269253       -8.8152421509       12.9971890910  MEMB      27              0.0000000000
      2922        27  SAPI      H3X           -16.1428297858       -7.7754095148       13.1053364799  MEMB      27              0.0000000000
      2923        27  SAPI      H3Y           -17.6378515593       -8.7423767140       12.8747613272  MEMB      27              0.0000000000
      2924        27  SAPI      C34           -15.9398234231       -9.4456781828       11.7398367297  MEMB      27              0.0000000000
      2925        27  SAPI      H4X           -14.8368537650       -9.5232174716       11.8239497194  MEMB      27              0.0000000000
      2926        27  SAPI      H4Y           -16.1751041172       -8.8131024419       10.8569093989  MEMB      27              0.0000000000
      2927        27  SAPI      C35           -16.5991051973      -10.7914047481       11.4730910110  MEMB      27              0.0000000000
      2928        27  SAPI      H5X           -17.6767741826      -10.5538139022       11.4994370798  MEMB      27              0.0000000000
      2929        27  SAPI      H5Y           -16.3808722978      -11.5409625570       12.2596414151  MEMB      27              0.0000000000
      2930        27  SAPI      C36           -16.3347387136      -11.3336857574       10.0809507984  MEMB      27              0.0000000000
      2931        27  SAPI      H6X           -16.7073296247      -10.5562906020        9.3813505155  MEMB      27              0.0000000000
      2932        27  SAPI      H6Y           -16.9558748690      -12.2391605838        9.9002752472  MEMB      27              0.0000000000
      2933        27  SAPI      C37           -14.8640661145      -11.6780837249        9.8271256707  MEMB      27              0.0000000000
      2934        27  SAPI      H7X           -14.6120955506      -12.5874145005       10.4224044101  MEMB      27              0.0000000000
      2935        27  SAPI      H7Y           -14.1925065264      -10.8625456073       10.1736409231  MEMB      27              0.0000000000
      2936        27  SAPI      C38           -14.6105748595      -11.9360817827        8.3382631185  MEMB      27              0.0000000000
      2937        27  SAPI      H8X           -15.2993569758      -12.7558827772        8.0343859386  MEMB      27              0.0000000000
      2938        27  SAPI      H8Y           -13.5672368905      -12.2953039495        8.1826362571  MEMB      27              0.0000000000
      2939        27  SAPI      C39           -14.8518664888      -10.6953570140        7.4622244224  MEMB      27              0.0000000000
      2940        27  SAPI      H9X           -13.9015815275      -10.1207862113        7.3895010286  MEMB      27              0.0000000000
      2941        27  SAPI      H9Y           -15.5760997935       -9.9967652921        7.9253375124  MEMB      27              0.0000000000
      2942        27  SAPI      C310          -15.3991246761      -11.0062162317        6.0615525584  MEMB      27              0.0000000000
      2943        27  SAPI      H10X          -14.6405705525      -11.5708065857        5.4834117787  MEMB      27              0.0000000000
      2944        27  SAPI      H10Y          -15.5484345072      -10.0287282315        5.5501330120  MEMB      27              0.0000000000
      2945        27  SAPI      C311          -16.7327017960      -11.7753381815        5.9932560642  MEMB      27              0.0000000000
      2946        27  SAPI      H11X          -17.4415719314      -11.3695597913        6.7471811912  MEMB      27              0.0000000000
      2947        27  SAPI      H11Y          -16.5523737832      -12.8482154926        6.2228854148  MEMB      27              0.0000000000
      2948        27  SAPI      C312          -17.3416581570      -11.6485949824        4.5876081534  MEMB      27              0.0000000000
      2949        27  SAPI      H12X          -16.5925276480      -12.0018173936        3.8435477659  MEMB      27              0.0000000000
      2950        27  SAPI      H12Y          -17.5159961292      -10.5728089560        4.3836532051  MEMB      27              0.0000000000
      2951        27  SAPI      C313          -18.6681616448      -12.3828006144        4.3470677850  MEMB      27              0.0000000000
      2952        27  SAPI      H13X          -19.4900870745      -11.8921401073        4.9122214144  MEMB      27              0.0000000000
      2953        27  SAPI      H13Y          -18.5859373238      -13.4279251979        4.7185939202  MEMB      27              0.0000000000
      2954        27  SAPI      C314          -19.0208553706      -12.4109668608        2.8479137413  MEMB      27              0.0000000000
      2955        27  SAPI      H14X          -19.9198122104      -13.0280645892        2.6768321147  MEMB      27              0.0000000000
      2956        27  SAPI      H14Y          -18.1682764166      -12.8906889179        2.3104192830  MEMB      27              0.0000000000
      2957        27  SAPI      C315          -19.2721824061      -11.0493963677        2.1971633003  MEMB      27              0.0000000000
      2958        27  SAPI      H15X          -19.2828870722      -11.1763042192        1.0914284729  MEMB      27              0.0000000000
      2959        27  SAPI      H15Y          -18.4274169450      -10.3776209284        2.4421821754  MEMB      27              0.0000000000
      2960        27  SAPI      C316          -20.5811491930      -10.3468439872        2.5743568541  MEMB      27              0.0000000000
      2961        27  SAPI      H16X          -20.5957633270      -10.1592206944        3.6673102980  MEMB      27              0.0000000000
      2962        27  SAPI      H16Y          -21.4527360614      -10.9843256861        2.3341513630  MEMB      27              0.0000000000
      2963        27  SAPI      C317          -20.6624120642       -9.0259911759        1.7975981682  MEMB      27              0.0000000000
      2964        27  SAPI      H17X          -20.6477505856       -9.2487737301        0.7086184588  MEMB      27              0.0000000000
      2965        27  SAPI      H17Y          -19.7229030693       -8.4912768058        2.0276646397  MEMB      27              0.0000000000
      2966        27  SAPI      C318          -21.8313606642       -8.0967064606        2.1148849569  MEMB      27              0.0000000000
      2967        27  SAPI      H18X          -21.6394190544       -7.0737925936        1.7211731956  MEMB      27              0.0000000000
      2968        27  SAPI      H18Y          -21.9714929988       -8.0152586261        3.2130815342  MEMB      27              0.0000000000
      2969        27  SAPI      H18Z          -22.7652767955       -8.4762428015        1.6506734391  MEMB      27              0.0000000000
      2970        28  CHL1      C3            -21.1434078789        5.3012492813       17.1594255846  MEMB      28              0.0000000000
      2971        28  CHL1      H3            -20.9400660688        6.3416339969       16.8034057185  MEMB      28              0.0000000000
      2972        28  CHL1      O3            -21.0773384224        5.2169694528       18.5781820371  MEMB      28              0.0000000000
      2973        28  CHL1      H3'           -20.2099721553        4.8024641303       18.6501221677  MEMB      28              0.0000000000
      2974        28  CHL1      C4            -22.5179924201        4.8405291936       16.6738369851  MEMB      28              0.0000000000
      2975        28  CHL1      H4A           -22.8078733770        3.9613418585       17.2901269461  MEMB      28              0.0000000000
      2976        28  CHL1      H4B           -23.2024745447        5.6829163969       16.9246335733  MEMB      28              0.0000000000
      2977        28  CHL1      C5            -22.6363369488        4.5008006339       15.2037377050  MEMB      28              0.0000000000
      2978        28  CHL1      C6            -23.7116723791        4.9082111825       14.5217976952  MEMB      28              0.0000000000
      2979        28  CHL1      H6            -24.5332265410        5.4133288778       15.0538196445  MEMB      28              0.0000000000
      2980        28  CHL1      C7            -23.9027911245        4.6607873665       13.0620141622  MEMB      28              0.0000000000
      2981        28  CHL1      H7A           -24.8995927615        4.2045905760       12.8678676578  MEMB      28              0.0000000000
      2982        28  CHL1      H7B           -23.8696975001        5.6431548644       12.5526823360  MEMB      28              0.0000000000
      2983        28  CHL1      C8            -22.8227164547        3.7544953590       12.4134979427  MEMB      28              0.0000000000
      2984        28  CHL1      H8            -23.1185296257        2.7089977384       12.6291982404  MEMB      28              0.0000000000
      2985        28  CHL1      C14           -22.8093660714        3.9819539240       10.9177587311  MEMB      28              0.0000000000
      2986        28  CHL1      H14           -22.5342690042        5.0523143186       10.7379349180  MEMB      28              0.0000000000
      2987        28  CHL1      C15           -24.1524024319        3.7135960505       10.2714406427  MEMB      28              0.0000000000
      2988        28  CHL1      H15A          -24.4111212935        2.7192115900       10.6513823450  MEMB      28              0.0000000000
      2989        28  CHL1      H15B          -25.0171560127        4.3164505227       10.5507429151  MEMB      28              0.0000000000
      2990        28  CHL1      C16           -23.8379920934        3.6681590788        8.7863204065  MEMB      28              0.0000000000
      2991        28  CHL1      H16A          -24.3068357038        2.7564913316        8.3706902043  MEMB      28              0.0000000000
      2992        28  CHL1      H16B          -24.2111141502        4.5339935831        8.2128706314  MEMB      28              0.0000000000
      2993        28  CHL1      C17           -22.2959106314        3.5428170591        8.6614468207  MEMB      28              0.0000000000
      2994        28  CHL1      H17           -21.8883891356        4.5663759891        8.4812232103  MEMB      28              0.0000000000
      2995        28  CHL1      C13           -21.8553296683        3.1123000103       10.0926078393  MEMB      28              0.0000000000
      2996        28  CHL1      C18           -22.2326121417        1.6154873159       10.2373648284  MEMB      28              0.0000000000
      2997        28  CHL1      H18A          -22.7935122103        1.4209712115       11.1652181037  MEMB      28              0.0000000000
      2998        28  CHL1      H18B          -22.8916412391        1.2597960874        9.4285887650  MEMB      28              0.0000000000
      2999        28  CHL1      H18C          -21.3289323169        0.9882967076       10.2416022148  MEMB      28              0.0000000000
      3000        28  CHL1      C12           -20.4305834981        3.3739067951       10.6263818612  MEMB      28              0.0000000000
      3001        28  CHL1      H12A          -19.7087109244        2.6926662265       10.1273845768  MEMB      28              0.0000000000
      3002        28  CHL1      H12B          -20.1342938437        4.4164437982       10.3956334098  MEMB      28              0.0000000000
      3003        28  CHL1      C11           -20.3667685650        3.1653891477       12.1709652044  MEMB      28              0.0000000000
      3004        28  CHL1      H11A          -20.5244431390        2.0900977336       12.3760994357  MEMB      28              0.0000000000
      3005        28  CHL1      H11B          -19.3453466539        3.4180516160       12.5228574785  MEMB      28              0.0000000000
      3006        28  CHL1      C9            -21.4371037674        3.9748019591       12.9826146489  MEMB      28              0.0000000000
      3007        28  CHL1      H9            -21.2158180833        5.0526821219       12.8088210136  MEMB      28              0.0000000000
      3008        28  CHL1      C10           -21.4348970978        3.7979782047       14.5297879694  MEMB      28              0.0000000000
      3009        28  CHL1      C19           -21.6161570212        2.3051718415       14.9003019281  MEMB      28              0.0000000000
      3010        28  CHL1      H19A          -22.5499378284        1.8932014186       14.4671624575  MEMB      28              0.0000000000
      3011        28  CHL1      H19B          -20.7520837409        1.7218182292       14.5377310233  MEMB      28              0.0000000000
      3012        28  CHL1      H19C          -21.6791015177        2.1671132091       15.9987583191  MEMB      28              0.0000000000
      3013        28  CHL1      C1            -20.0954078972        4.3275723761       15.0963515988  MEMB      28              0.0000000000
      3014        28  CHL1      H1A           -19.2571120398        3.6916792728       14.7384666555  MEMB      28              0.0000000000
      3015        28  CHL1      H1B           -19.9161339543        5.3542721467       14.7076492021  MEMB      28              0.0000000000
      3016        28  CHL1      C2            -20.0662483497        4.3663655930       16.6286458610  MEMB      28              0.0000000000
      3017        28  CHL1      H2A           -19.0777775044        4.7149633715       16.9748370933  MEMB      28              0.0000000000
      3018        28  CHL1      H2B           -20.2248897075        3.3440810109       17.0318646427  MEMB      28              0.0000000000
      3019        28  CHL1      C20           -22.0166319159        2.6812056457        7.4224413333  MEMB      28              0.0000000000
      3020        28  CHL1      H20           -22.4446990811        1.6610483959        7.5485173831  MEMB      28              0.0000000000
      3021        28  CHL1      C21           -20.5147172343        2.5135747911        7.2594037562  MEMB      28              0.0000000000
      3022        28  CHL1      H21A          -20.0355129423        3.5130370540        7.3177751633  MEMB      28              0.0000000000
      3023        28  CHL1      H21B          -20.2931169126        2.0318436077        6.2813787254  MEMB      28              0.0000000000
      3024        28  CHL1      H21C          -20.0905585704        1.8736115030        8.0590102334  MEMB      28              0.0000000000
      3025        28  CHL1      C22           -22.7268236954        3.2636221414        6.1611587480  MEMB      28              0.0000000000
      3026        28  CHL1      H22A          -23.8235098296        3.3047211102        6.3492584091  MEMB      28              0.0000000000
      3027        28  CHL1      H22B          -22.4075346629        4.3113414767        5.9787665939  MEMB      28              0.0000000000
      3028        28  CHL1      C23           -22.5987468821        2.4400237418        4.8688848352  MEMB      28              0.0000000000
      3029        28  CHL1      H23A          -21.7493023384        2.8491506860        4.2829953707  MEMB      28              0.0000000000
      3030        28  CHL1      H23B          -22.3651245589        1.3811014264        5.1161720487  MEMB      28              0.0000000000
      3031        28  CHL1      C24           -23.9091344257        2.4715402269        4.0568275770  MEMB      28              0.0000000000
      3032        28  CHL1      H24A          -24.6188801329        1.7419244259        4.5077774159  MEMB      28              0.0000000000
      3033        28  CHL1      H24B          -24.3751707383        3.4783571148        4.1438659020  MEMB      28              0.0000000000
      3034        28  CHL1      C25           -23.7738257371        2.1536877168        2.5558979828  MEMB      28              0.0000000000
      3035        28  CHL1      H25           -23.2140681353        1.1957334932        2.4417895090  MEMB      28              0.0000000000
      3036        28  CHL1      C26           -25.1671679067        1.9953897682        1.9239839013  MEMB      28              0.0000000000
      3037        28  CHL1      H26A          -25.7262881196        1.1667112456        2.4073963160  MEMB      28              0.0000000000
      3038        28  CHL1      H26B          -25.7487897302        2.9340475855        2.0559309831  MEMB      28              0.0000000000
      3039        28  CHL1      H26C          -25.0806752563        1.7845632939        0.8368542227  MEMB      28              0.0000000000
      3040        28  CHL1      C27           -23.0113122913        3.2593091481        1.8180347149  MEMB      28              0.0000000000
      3041        28  CHL1      H27A          -21.9822606013        3.3876119304        2.2130910392  MEMB      28              0.0000000000
      3042        28  CHL1      H27B          -22.9409241921        3.0273805220        0.7343737721  MEMB      28              0.0000000000
      3043        28  CHL1      H27C          -23.5496033503        4.2236038022        1.9351481461  MEMB      28              0.0000000000
      3044        29  SAPE      N              -8.7577820667      -24.0849077332       20.2806554013  MEMB      29              0.0000000000
      3045        29  SAPE      HN1            -8.4715216182      -23.2990373950       19.6399350988  MEMB      29              0.0000000000
      3046        29  SAPE      HN2            -7.9282868161      -24.7004245759       20.4565514126  MEMB      29              0.0000000000
      3047        29  SAPE      HN3            -9.6111232959      -24.5391949127       19.8746424257  MEMB      29              0.0000000000
      3048        29  SAPE      C12            -9.1398740783      -23.2575353441       21.4632270990  MEMB      29              0.0000000000
      3049        29  SAPE      H12A           -8.2209456888      -23.0371680273       22.0490218976  MEMB      29              0.0000000000
      3050        29  SAPE      H12B           -9.8827409544      -23.7992908849       22.0796447372  MEMB      29              0.0000000000
      3051        29  SAPE      C11            -9.6968860058      -21.9763426127       20.8591193857  MEMB      29              0.0000000000
      3052        29  SAPE      H11A           -9.9283785937      -21.2311390185       21.6506396294  MEMB      29              0.0000000000
      3053        29  SAPE      H11B          -10.6734423515      -22.2044048504       20.3747606155  MEMB      29              0.0000000000
      3054        29  SAPE      P              -7.8249767988      -20.2703523551       20.1946837296  MEMB      29              0.0000000000
      3055        29  SAPE      O13            -8.4995803025      -19.0452511650       19.8011716076  MEMB      29              0.0000000000
      3056        29  SAPE      O14            -7.4111842697      -20.4442591057       21.6036484948  MEMB      29              0.0000000000
      3057        29  SAPE      O12            -8.7813947457      -21.4920108543       19.8697790314  MEMB      29              0.0000000000
      3058        29  SAPE      O11            -6.6256203330      -20.5836618841       19.2004643127  MEMB      29              0.0000000000
      3059        29  SAPE      C1             -6.3308253834      -21.8964226519       18.7435907692  MEMB      29              0.0000000000
      3060        29  SAPE      HA             -5.8527657347      -22.4646948181       19.5696488810  MEMB      29              0.0000000000
      3061        29  SAPE      HB             -7.2403435802      -22.4350891190       18.4095749554  MEMB      29              0.0000000000
      3062        29  SAPE      C2             -5.3850237861      -21.9018801657       17.5158362538  MEMB      29              0.0000000000
      3063        29  SAPE      HS             -4.6064223841      -21.1225259275       17.6962503888  MEMB      29              0.0000000000
      3064        29  SAPE      O21            -6.1353479789      -21.6650891358       16.3077241199  MEMB      29              0.0000000000
      3065        29  SAPE      C21            -6.2966429647      -20.4266400206       15.9059836360  MEMB      29              0.0000000000
      3066        29  SAPE      O22            -5.9855357595      -19.4053719016       16.4794670059  MEMB      29              0.0000000000
      3067        29  SAPE      C22            -6.7676955574      -20.5109877657       14.4539911041  MEMB      29              0.0000000000
      3068        29  SAPE      H2R            -6.0564496699      -21.1495040301       13.8918468377  MEMB      29              0.0000000000
      3069        29  SAPE      H2S            -7.7233657880      -21.0291010042       14.4218006900  MEMB      29              0.0000000000
      3070        29  SAPE      C3             -4.6448982481      -23.2769422610       17.3552295499  MEMB      29              0.0000000000
      3071        29  SAPE      HX             -4.1436965371      -23.5482607787       18.3110377364  MEMB      29              0.0000000000
      3072        29  SAPE      HY             -3.8171051456      -23.1399013869       16.6231272891  MEMB      29              0.0000000000
      3073        29  SAPE      O31            -5.5151412380      -24.3341580878       16.8740858171  MEMB      29              0.0000000000
      3074        29  SAPE      C31            -6.1914412346      -24.9773984929       17.7935091588  MEMB      29              0.0000000000
      3075        29  SAPE      O32            -6.1368289997      -24.8197870842       19.0015349454  MEMB      29              0.0000000000
      3076        29  SAPE      C32            -7.3343947116      -25.7513057202       17.1765458704  MEMB      29              0.0000000000
      3077        29  SAPE      H2X            -7.6587848968      -26.4908031790       17.9357560110  MEMB      29              0.0000000000
      3078        29  SAPE      H2Y            -6.9710889292      -26.3122868749       16.3012459602  MEMB      29              0.0000000000
      3079        29  SAPE      C23            -6.9326562587      -19.1470475924       13.7593902952  MEMB      29              0.0000000000
      3080        29  SAPE      H3R            -5.9230167567      -18.6778679689       13.7287491054  MEMB      29              0.0000000000
      3081        29  SAPE      H3S            -7.5898408413      -18.4717259902       14.3550925503  MEMB      29              0.0000000000
      3082        29  SAPE      C24            -7.5279047124      -19.3350992263       12.3477629086  MEMB      29              0.0000000000
      3083        29  SAPE      H4R            -8.6149238685      -19.0996435063       12.3736149355  MEMB      29              0.0000000000
      3084        29  SAPE      H4S            -7.4397415423      -20.4112209911       12.0759675882  MEMB      29              0.0000000000
      3085        29  SAPE      C25            -6.8029222299      -18.5273097065       11.3118323950  MEMB      29              0.0000000000
      3086        29  SAPE      H5R            -5.7446090015      -18.3523184434       11.5506024469  MEMB      29              0.0000000000
      3087        29  SAPE      C26            -7.2954114902      -18.0532666189       10.1556912491  MEMB      29              0.0000000000
      3088        29  SAPE      H6R            -6.6097412922      -17.5140944093        9.4864244815  MEMB      29              0.0000000000
      3089        29  SAPE      C27            -8.7015620453      -18.2409616284        9.6523101093  MEMB      29              0.0000000000
      3090        29  SAPE      H7R            -9.4192753714      -17.7493457762       10.3479742082  MEMB      29              0.0000000000
      3091        29  SAPE      H7S            -8.9348933209      -19.3259187176        9.6991796112  MEMB      29              0.0000000000
      3092        29  SAPE      C28            -8.8822477321      -17.6849896606        8.2541497224  MEMB      29              0.0000000000
      3093        29  SAPE      H8R            -8.6909960872      -16.6021492523        8.1645755402  MEMB      29              0.0000000000
      3094        29  SAPE      C29            -9.3090804425      -18.3523183462        7.1591849633  MEMB      29              0.0000000000
      3095        29  SAPE      H9R            -9.3907466388      -17.8323377520        6.2020684507  MEMB      29              0.0000000000
      3096        29  SAPE      C210           -9.7123280611      -19.7923676518        7.0543800591  MEMB      29              0.0000000000
      3097        29  SAPE      H10R          -10.7613220641      -19.8369261694        6.7145737620  MEMB      29              0.0000000000
      3098        29  SAPE      H10S           -9.6831184231      -20.2258504247        8.0622890820  MEMB      29              0.0000000000
      3099        29  SAPE      C211           -8.8881620329      -20.7604854904        6.2809196663  MEMB      29              0.0000000000
      3100        29  SAPE      H11R           -7.8161552583      -20.7099276190        6.5158634374  MEMB      29              0.0000000000
      3101        29  SAPE      C212           -9.3113271377      -21.6716135281        5.3884167567  MEMB      29              0.0000000000
      3102        29  SAPE      H12R           -8.6311557336      -22.4881032853        5.2176516177  MEMB      29              0.0000000000
      3103        29  SAPE      C213          -10.6803396971      -22.0096936236        4.8775916683  MEMB      29              0.0000000000
      3104        29  SAPE      H13R          -11.2935927513      -21.1075389404        4.9214953212  MEMB      29              0.0000000000
      3105        29  SAPE      H13S          -11.1245467763      -22.7352238104        5.5969880831  MEMB      29              0.0000000000
      3106        29  SAPE      C214          -10.7988165468      -22.6244214136        3.4945356080  MEMB      29              0.0000000000
      3107        29  SAPE      H14R          -11.4981761018      -23.4668190173        3.4782262199  MEMB      29              0.0000000000
      3108        29  SAPE      C215          -10.3104505831      -22.2712862662        2.2850568785  MEMB      29              0.0000000000
      3109        29  SAPE      H15R          -10.5276580796      -22.9400358315        1.4376963841  MEMB      29              0.0000000000
      3110        29  SAPE      C216           -9.4554861866      -21.1037874403        1.8728038175  MEMB      29              0.0000000000
      3111        29  SAPE      H16R           -9.5533383733      -20.9753370409        0.7717586020  MEMB      29              0.0000000000
      3112        29  SAPE      H16S           -8.3768064501      -21.2945667328        2.0697173464  MEMB      29              0.0000000000
      3113        29  SAPE      C217           -9.8379075322      -19.7617330539        2.4957866837  MEMB      29              0.0000000000
      3114        29  SAPE      H17R           -9.3015498874      -19.6775193922        3.4707376190  MEMB      29              0.0000000000
      3115        29  SAPE      H17S          -10.9125226689      -19.6796364048        2.7344892099  MEMB      29              0.0000000000
      3116        29  SAPE      C218           -9.4099609939      -18.5678938392        1.6364864812  MEMB      29              0.0000000000
      3117        29  SAPE      H18R           -8.3767672839      -18.7053105582        1.2644012430  MEMB      29              0.0000000000
      3118        29  SAPE      H18S           -9.4007360976      -17.7655888536        2.3884229324  MEMB      29              0.0000000000
      3119        29  SAPE      C219          -10.3278120318      -18.0572092686        0.5143718278  MEMB      29              0.0000000000
      3120        29  SAPE      H19R          -10.0840299583      -16.9772401093        0.3565012696  MEMB      29              0.0000000000
      3121        29  SAPE      H19S          -11.3913519052      -18.0935414567        0.8177064428  MEMB      29              0.0000000000
      3122        29  SAPE      C220          -10.1659304649      -18.7391212099       -0.8366285225  MEMB      29              0.0000000000
      3123        29  SAPE      H20R          -10.5382358409      -19.7860111480       -0.8102617222  MEMB      29              0.0000000000
      3124        29  SAPE      H20S           -9.1071213137      -18.7403317197       -1.1692104587  MEMB      29              0.0000000000
      3125        29  SAPE      H20T          -10.7638189769      -18.1635038016       -1.5741152080  MEMB      29              0.0000000000
      3126        29  SAPE      C33            -8.5014841819      -24.7806287454       16.8484124477  MEMB      29              0.0000000000
      3127        29  SAPE      H3X            -8.2584271412      -23.7242010279       17.1061795258  MEMB      29              0.0000000000
      3128        29  SAPE      H3Y            -9.4004300346      -25.0653503120       17.4426883542  MEMB      29              0.0000000000
      3129        29  SAPE      C34            -8.8781840842      -24.7816005495       15.3673888804  MEMB      29              0.0000000000
      3130        29  SAPE      H4X            -9.6641531829      -24.0191918743       15.1719433490  MEMB      29              0.0000000000
      3131        29  SAPE      H4Y            -9.3464091766      -25.7620431063       15.1352621968  MEMB      29              0.0000000000
      3132        29  SAPE      C35            -7.7078661322      -24.5615948686       14.3945300956  MEMB      29              0.0000000000
      3133        29  SAPE      H5X            -6.7484816561      -24.9781291585       14.7692212168  MEMB      29              0.0000000000
      3134        29  SAPE      H5Y            -7.5339944089      -23.4758798818       14.2481879002  MEMB      29              0.0000000000
      3135        29  SAPE      C36            -8.0204146131      -25.2741166749       13.0793056033  MEMB      29              0.0000000000
      3136        29  SAPE      H6X            -9.1235063435      -25.3099667398       12.9754538207  MEMB      29              0.0000000000
      3137        29  SAPE      H6Y            -7.6756964030      -26.3286996831       13.1552577891  MEMB      29              0.0000000000
      3138        29  SAPE      C37            -7.4722590003      -24.6142226108       11.8123441567  MEMB      29              0.0000000000
      3139        29  SAPE      H7X            -7.5340941566      -25.3634056665       10.9946212306  MEMB      29              0.0000000000
      3140        29  SAPE      H7Y            -6.4050799862      -24.3576803039       11.9501035011  MEMB      29              0.0000000000
      3141        29  SAPE      C38            -8.2611488120      -23.3518556655       11.4262256484  MEMB      29              0.0000000000
      3142        29  SAPE      H8X            -7.9159231959      -22.5522506416       12.1168202125  MEMB      29              0.0000000000
      3143        29  SAPE      H8Y            -9.3400756374      -23.5362713546       11.6231293587  MEMB      29              0.0000000000
      3144        29  SAPE      C39            -8.0996055325      -22.8640273373        9.9679608680  MEMB      29              0.0000000000
      3145        29  SAPE      H9X            -8.3593229730      -21.7831673368        9.9199214550  MEMB      29              0.0000000000
      3146        29  SAPE      H9Y            -8.8164193018      -23.3947802840        9.3122507179  MEMB      29              0.0000000000
      3147        29  SAPE      C310           -6.6794294005      -23.1082342994        9.4713100375  MEMB      29              0.0000000000
      3148        29  SAPE      H10X           -6.5073342417      -24.2057066402        9.4352239182  MEMB      29              0.0000000000
      3149        29  SAPE      H10Y           -6.0308890536      -22.6646100015       10.2608776043  MEMB      29              0.0000000000
      3150        29  SAPE      C311           -6.2276046787      -22.5486619024        8.1193520318  MEMB      29              0.0000000000
      3151        29  SAPE      H11X           -5.1120326182      -22.5951240452        8.1295586378  MEMB      29              0.0000000000
      3152        29  SAPE      H11Y           -6.5044158385      -21.4795035369        8.0179543458  MEMB      29              0.0000000000
      3153        29  SAPE      C312           -6.6542643528      -23.3755913144        6.8956187325  MEMB      29              0.0000000000
      3154        29  SAPE      H12X           -7.7577040004      -23.3952206273        6.8255248752  MEMB      29              0.0000000000
      3155        29  SAPE      H12Y           -6.2913712192      -24.4135249486        6.9991212322  MEMB      29              0.0000000000
      3156        29  SAPE      C313           -5.9909229290      -22.8316455305        5.6347219976  MEMB      29              0.0000000000
      3157        29  SAPE      H13X           -4.9016785218      -23.0645734268        5.6907701838  MEMB      29              0.0000000000
      3158        29  SAPE      H13Y           -6.0949986074      -21.7218128219        5.6419040471  MEMB      29              0.0000000000
      3159        29  SAPE      C314           -6.4867567142      -23.3069741650        4.2650483821  MEMB      29              0.0000000000
      3160        29  SAPE      H14X           -5.8637477610      -22.6825574896        3.6101376620  MEMB      29              0.0000000000
      3161        29  SAPE      H14Y           -7.5027835618      -23.0237091422        3.9570005832  MEMB      29              0.0000000000
      3162        29  SAPE      C315           -6.3629874530      -24.7843846872        3.9042216472  MEMB      29              0.0000000000
      3163        29  SAPE      H15X           -7.1272470959      -25.3630130463        4.4681736798  MEMB      29              0.0000000000
      3164        29  SAPE      H15Y           -5.3535088709      -25.1716962558        4.1624500414  MEMB      29              0.0000000000
      3165        29  SAPE      C316           -6.6130824518      -24.9361238637        2.3972381859  MEMB      29              0.0000000000
      3166        29  SAPE      H16X           -7.6795634291      -24.6946216390        2.1791899642  MEMB      29              0.0000000000
      3167        29  SAPE      H16Y           -6.4202923892      -25.9790244953        2.0680607461  MEMB      29              0.0000000000
      3168        29  SAPE      C317           -5.7550240690      -23.9616499955        1.5870349803  MEMB      29              0.0000000000
      3169        29  SAPE      H17X           -4.7245115655      -23.9509336157        2.0063393348  MEMB      29              0.0000000000
      3170        29  SAPE      H17Y           -6.1732896753      -22.9289507392        1.6727806319  MEMB      29              0.0000000000
      3171        29  SAPE      C318           -5.6954015130      -24.2811334044        0.1178720792  MEMB      29              0.0000000000
      3172        29  SAPE      H18X           -5.3526553401      -23.3746843650       -0.4297928144  MEMB      29              0.0000000000
      3173        29  SAPE      H18Y           -6.6980142067      -24.5599297662       -0.2527801940  MEMB      29              0.0000000000
      3174        29  SAPE      H18Z           -4.9952351638      -25.1227406045       -0.0704942247  MEMB      29              0.0000000000
      3175        30  OSM       N              -0.0521829270       24.2427300649       21.8879758451  MEMB      30              0.0000000000
      3176        30  OSM       C15             1.0444951494       24.7121348663       22.7751253230  MEMB      30              0.0000000000
      3177        30  OSM       H15A            2.0179217248       24.4458274143       22.3730079642  MEMB      30              0.0000000000
      3178        30  OSM       H15B            0.9772059137       24.2446719387       23.7571886987  MEMB      30              0.0000000000
      3179        30  OSM       H15C            1.0525630319       25.7866150513       22.8994449157  MEMB      30              0.0000000000
      3180        30  OSM       C14            -1.3964274709       24.6554405974       22.3939406430  MEMB      30              0.0000000000
      3181        30  OSM       H14A           -1.5931696043       25.6984210228       22.2400642191  MEMB      30              0.0000000000
      3182        30  OSM       H14B           -1.5418590563       24.3499980927       23.4182804394  MEMB      30              0.0000000000
      3183        30  OSM       H14C           -2.1642992082       24.0974595438       21.8338427931  MEMB      30              0.0000000000
      3184        30  OSM       C13             0.0931760853       24.8295973909       20.5221247730  MEMB      30              0.0000000000
      3185        30  OSM       H13A            1.0537128956       24.6082534392       20.0771008287  MEMB      30              0.0000000000
      3186        30  OSM       H13B           -0.0350232878       25.9001330048       20.5681183612  MEMB      30              0.0000000000
      3187        30  OSM       H13C           -0.6364794393       24.3962105623       19.8386993538  MEMB      30              0.0000000000
      3188        30  OSM       C12            -0.0179361346       22.7169757525       21.8078164660  MEMB      30              0.0000000000
      3189        30  OSM       H12A           -0.2626710885       22.3269311279       22.7882930365  MEMB      30              0.0000000000
      3190        30  OSM       H12B            0.9882330888       22.3919649217       21.5800212956  MEMB      30              0.0000000000
      3191        30  OSM       C11            -0.9777863624       22.0182923019       20.8162724068  MEMB      30              0.0000000000
      3192        30  OSM       H11A           -0.8487213407       20.9147404877       20.8935048551  MEMB      30              0.0000000000
      3193        30  OSM       H11B           -0.7163442853       22.3223984907       19.7790049785  MEMB      30              0.0000000000
      3194        30  OSM       P              -3.5839043453       21.8594609715       20.3579940157  MEMB      30              0.0000000000
      3195        30  OSM       O13            -4.2188912415       20.7490348396       21.1127273465  MEMB      30              0.0000000000
      3196        30  OSM       O14            -4.3963231964       23.0616714252       20.0565388584  MEMB      30              0.0000000000
      3197        30  OSM       O11            -2.9913691739       21.3271480182       18.9658938150  MEMB      30              0.0000000000
      3198        30  OSM       O12            -2.3074080073       22.3622145536       21.1381239246  MEMB      30              0.0000000000
      3199        30  OSM       C1S            -2.7538616017       22.3771138310       17.9996990734  MEMB      30              0.0000000000
      3200        30  OSM       H1S            -2.2123605791       23.2385168097       18.4587940889  MEMB      30              0.0000000000
      3201        30  OSM       H1T            -3.7135785491       22.7661748570       17.5869109078  MEMB      30              0.0000000000
      3202        30  OSM       NF             -1.2341886972       23.0657395818       16.2078212476  MEMB      30              0.0000000000
      3203        30  OSM       HNF            -1.6427124007       23.3884286983       15.3657675020  MEMB      30              0.0000000000
      3204        30  OSM       C2S            -1.8928424210       21.9218197486       16.7952771879  MEMB      30              0.0000000000
      3205        30  OSM       H2S            -1.1084396837       21.2199543348       17.1640821944  MEMB      30              0.0000000000
      3206        30  OSM       C3S            -2.7705546566       21.2212763679       15.7237201520  MEMB      30              0.0000000000
      3207        30  OSM       H3S            -3.4981489053       21.9680101171       15.3322515530  MEMB      30              0.0000000000
      3208        30  OSM       O3             -3.5463833736       20.1238781671       16.1611415288  MEMB      30              0.0000000000
      3209        30  OSM       HO3            -3.4626599758       20.1499682134       17.1187453215  MEMB      30              0.0000000000
      3210        30  OSM       C4S            -1.8624979034       20.8318080399       14.5964981343  MEMB      30              0.0000000000
      3211        30  OSM       H4S            -1.9513049127       21.4975199345       13.7338646390  MEMB      30              0.0000000000
      3212        30  OSM       C5S            -1.0184008132       19.7868499779       14.5382216185  MEMB      30              0.0000000000
      3213        30  OSM       H5S            -0.9773308485       19.0715982599       15.3784794204  MEMB      30              0.0000000000
      3214        30  OSM       C6S            -0.1356205427       19.4817144846       13.3607283263  MEMB      30              0.0000000000
      3215        30  OSM       H6S            -0.2444865727       18.4094556206       13.0799669828  MEMB      30              0.0000000000
      3216        30  OSM       H6T             0.9253639141       19.6429688102       13.6557444888  MEMB      30              0.0000000000
      3217        30  OSM       C7S            -0.3654401714       20.3359364245       12.1027990482  MEMB      30              0.0000000000
      3218        30  OSM       H7S            -0.1700906853       21.4067581084       12.3386243928  MEMB      30              0.0000000000
      3219        30  OSM       H7T            -1.4217897496       20.2293557601       11.7694883880  MEMB      30              0.0000000000
      3220        30  OSM       C8S             0.5614960447       19.9156885099       10.9627323227  MEMB      30              0.0000000000
      3221        30  OSM       H8S             0.4073706591       18.8326105632       10.7560989826  MEMB      30              0.0000000000
      3222        30  OSM       H8T             1.6110687752       20.0556811614       11.3042448940  MEMB      30              0.0000000000
      3223        30  OSM       C9S             0.3398801390       20.7071719668        9.6701837585  MEMB      30              0.0000000000
      3224        30  OSM       H9S             0.4398342753       21.7944214980        9.8872298523  MEMB      30              0.0000000000
      3225        30  OSM       H9T            -0.6931821097       20.5212850715        9.3038939730  MEMB      30              0.0000000000
      3226        30  OSM       C10S            1.3332916620       20.3192744638        8.5694258830  MEMB      30              0.0000000000
      3227        30  OSM       H10S            1.2183333339       19.2394157901        8.3331008386  MEMB      30              0.0000000000
      3228        30  OSM       H10T            2.3621698112       20.4785784950        8.9660249387  MEMB      30              0.0000000000
      3229        30  OSM       C11S            1.1786759302       21.1375017813        7.2850203387  MEMB      30              0.0000000000
      3230        30  OSM       H11S            2.1763516707       21.5546413622        7.0269487912  MEMB      30              0.0000000000
      3231        30  OSM       H11T            0.4959255191       21.9948120082        7.4808617544  MEMB      30              0.0000000000
      3232        30  OSM       C12S            0.6436337699       20.3337357280        6.0879084703  MEMB      30              0.0000000000
      3233        30  OSM       H12S           -0.2368464568       19.7404447968        6.4281759472  MEMB      30              0.0000000000
      3234        30  OSM       H12T            1.4192528709       19.6173073281        5.7374074827  MEMB      30              0.0000000000
      3235        30  OSM       C13S            0.1895035918       21.2409537167        4.9298558491  MEMB      30              0.0000000000
      3236        30  OSM       H13S           -0.6291001261       21.8830159101        5.3288231223  MEMB      30              0.0000000000
      3237        30  OSM       H13T           -0.2455108433       20.6253019261        4.1116238909  MEMB      30              0.0000000000
      3238        30  OSM       C14S            1.2928248512       22.1536732039        4.3600613595  MEMB      30              0.0000000000
      3239        30  OSM       H14S            1.9399909339       21.5754718838        3.6679478564  MEMB      30              0.0000000000
      3240        30  OSM       H14T            1.9394170143       22.5098118186        5.1911897740  MEMB      30              0.0000000000
      3241        30  OSM       C15S            0.7628531985       23.4296630851        3.6791463328  MEMB      30              0.0000000000
      3242        30  OSM       H15S            1.6223683424       24.0634640897        3.3694224794  MEMB      30              0.0000000000
      3243        30  OSM       H15T            0.1981497796       24.0028343123        4.4493515684  MEMB      30              0.0000000000
      3244        30  OSM       C16S           -0.1485211559       23.2078859759        2.4614560533  MEMB      30              0.0000000000
      3245        30  OSM       H16S           -0.6694736082       24.1685101947        2.2537479945  MEMB      30              0.0000000000
      3246        30  OSM       H16T           -0.9237753213       22.4434370204        2.6868504089  MEMB      30              0.0000000000
      3247        30  OSM       C17S            0.6029239864       22.7946752341        1.1972421323  MEMB      30              0.0000000000
      3248        30  OSM       H17S            1.2039990970       21.8880459565        1.4332441364  MEMB      30              0.0000000000
      3249        30  OSM       H17T            1.3139108343       23.6082107403        0.9233388124  MEMB      30              0.0000000000
      3250        30  OSM       C18S           -0.3045863506       22.4868184217        0.0007887762  MEMB      30              0.0000000000
      3251        30  OSM       H18S            0.1662593890       21.7124625179       -0.6372084504  MEMB      30              0.0000000000
      3252        30  OSM       H18T           -0.4440393830       23.3792396530       -0.6403339786  MEMB      30              0.0000000000
      3253        30  OSM       H18U           -1.2987425299       22.1105355060        0.3198275581  MEMB      30              0.0000000000
      3254        30  OSM       C1F            -0.2154489164       23.7588689358       16.6801394789  MEMB      30              0.0000000000
      3255        30  OSM       OF              0.2632446710       23.5568186439       17.7861039729  MEMB      30              0.0000000000
      3256        30  OSM       C2F             0.2566228217       24.8594864948       15.7752751347  MEMB      30              0.0000000000
      3257        30  OSM       H2F             1.3321478104       25.0599334771       15.9748383382  MEMB      30              0.0000000000
      3258        30  OSM       H2G            -0.3180858404       25.7740247023       16.0411299084  MEMB      30              0.0000000000
      3259        30  OSM       C3F             0.0438651900       24.5837293141       14.2547365598  MEMB      30              0.0000000000
      3260        30  OSM       H3F            -0.8369752617       23.9665722411       13.9882832516  MEMB      30              0.0000000000
      3261        30  OSM       H3G             0.9377645983       24.0316201579       13.8818088754  MEMB      30              0.0000000000
      3262        30  OSM       C4F            -0.1189513062       25.8936065340       13.4690445333  MEMB      30              0.0000000000
      3263        30  OSM       H4F             0.3699619928       25.8286883832       12.4759585876  MEMB      30              0.0000000000
      3264        30  OSM       H4G             0.4169236189       26.6787490551       14.0343789727  MEMB      30              0.0000000000
      3265        30  OSM       C5F            -1.5705133990       26.3901366591       13.3359792298  MEMB      30              0.0000000000
      3266        30  OSM       H5F            -1.5229614275       27.4849331658       13.1344133280  MEMB      30              0.0000000000
      3267        30  OSM       H5G            -2.0925652634       26.2666980062       14.3082844453  MEMB      30              0.0000000000
      3268        30  OSM       C6F            -2.4342645347       25.7677156276       12.2217450220  MEMB      30              0.0000000000
      3269        30  OSM       H6F            -3.2697694582       26.4828523194       12.0312282886  MEMB      30              0.0000000000
      3270        30  OSM       H6G            -2.9050555448       24.8344740054       12.5896077812  MEMB      30              0.0000000000
      3271        30  OSM       C7F            -1.7253682956       25.5182283617       10.8753448029  MEMB      30              0.0000000000
      3272        30  OSM       H7F            -0.9857807945       26.3248283964       10.7006537062  MEMB      30              0.0000000000
      3273        30  OSM       H7G            -2.4767554726       25.5959755138       10.0544557285  MEMB      30              0.0000000000
      3274        30  OSM       C8F            -1.0353763811       24.1450554310       10.7522186094  MEMB      30              0.0000000000
      3275        30  OSM       H8F            -0.2073139635       24.0512324881       11.4808638501  MEMB      30              0.0000000000
      3276        30  OSM       H8G            -0.5494537338       24.0930391471        9.7530971525  MEMB      30              0.0000000000
      3277        30  OSM       C9F            -2.0091045550       23.0157050361       10.9656739867  MEMB      30              0.0000000000
      3278        30  OSM       H9F            -2.2170697631       22.7690714766       12.0148952332  MEMB      30              0.0000000000
      3279        30  OSM       C10F           -2.6412375822       22.3298644219       10.0074400086  MEMB      30              0.0000000000
      3280        30  OSM       H10F           -3.3577478334       21.5408804824       10.2854446562  MEMB      30              0.0000000000
      3281        30  OSM       C11F           -2.4919150928       22.5692912293        8.5289072571  MEMB      30              0.0000000000
      3282        30  OSM       H11F           -2.4185368321       21.6003552597        7.9871127832  MEMB      30              0.0000000000
      3283        30  OSM       H11G           -1.5857736844       23.1535940685        8.2701497701  MEMB      30              0.0000000000
      3284        30  OSM       C12F           -3.7344052550       23.3262371135        8.0543839402  MEMB      30              0.0000000000
      3285        30  OSM       H12F           -3.8219217190       24.3275883794        8.5285477067  MEMB      30              0.0000000000
      3286        30  OSM       H12G           -4.5770731445       22.7246371318        8.4320389323  MEMB      30              0.0000000000
      3287        30  OSM       C13F           -3.8519255552       23.4543495163        6.5301674985  MEMB      30              0.0000000000
      3288        30  OSM       H13F           -4.8391303071       23.8960391479        6.2637297657  MEMB      30              0.0000000000
      3289        30  OSM       H13G           -3.8117169873       22.4362156350        6.0796799845  MEMB      30              0.0000000000
      3290        30  OSM       C14F           -2.7647771485       24.3354350404        5.9110402341  MEMB      30              0.0000000000
      3291        30  OSM       H14F           -1.7910434927       24.1236482873        6.4048484999  MEMB      30              0.0000000000
      3292        30  OSM       H14G           -3.0109261344       25.4040042250        6.0958719909  MEMB      30              0.0000000000
      3293        30  OSM       C15F           -2.5872836779       24.0804881813        4.4090545399  MEMB      30              0.0000000000
      3294        30  OSM       H15F           -2.2577200111       23.0272600143        4.2772560289  MEMB      30              0.0000000000
      3295        30  OSM       H15G           -1.7827469421       24.7591693305        4.0479822751  MEMB      30              0.0000000000
      3296        30  OSM       C16F           -3.8482948830       24.3289005963        3.5753474581  MEMB      30              0.0000000000
      3297        30  OSM       H16F           -4.0277790027       25.4233532671        3.6346592538  MEMB      30              0.0000000000
      3298        30  OSM       H16G           -4.7180117296       23.8011116599        4.0211208432  MEMB      30              0.0000000000
      3299        30  OSM       C17F           -3.7671575072       23.9364387768        2.0903629741  MEMB      30              0.0000000000
      3300        30  OSM       H17F           -2.7677731478       24.1872747254        1.6834424630  MEMB      30              0.0000000000
      3301        30  OSM       H17G           -4.5070857511       24.5649075390        1.5410269892  MEMB      30              0.0000000000
      3302        30  OSM       C18F           -4.0913595065       22.4691781591        1.7961696433  MEMB      30              0.0000000000
      3303        30  OSM       H18F           -4.0780445883       22.2865778855        0.6991559913  MEMB      30              0.0000000000
      3304        30  OSM       H18G           -5.0992862736       22.2070435714        2.1845593167  MEMB      30              0.0000000000
      3305        30  OSM       H18H           -3.3421771190       21.7979177511        2.2672277294  MEMB      30              0.0000000000
      3306        31  CHL1      C3             16.1853022950      -16.8311257309       17.9000111661  MEMB      31              0.0000000000
      3307        31  CHL1      H3             16.8870622753      -17.6777135187       17.7131568953  MEMB      31              0.0000000000
      3308        31  CHL1      O3             15.7841761363      -16.8517003980       19.2639107177  MEMB      31              0.0000000000
      3309        31  CHL1      H3'            15.4837265115      -17.7737842745       19.3970668668  MEMB      31              0.0000000000
      3310        31  CHL1      C4             16.8842996238      -15.4942339449       17.5706102850  MEMB      31              0.0000000000
      3311        31  CHL1      H4A            16.1951606520      -14.6903441887       17.9165814268  MEMB      31              0.0000000000
      3312        31  CHL1      H4B            17.8048871915      -15.4173145268       18.1957040286  MEMB      31              0.0000000000
      3313        31  CHL1      C5             17.1788932061      -15.2600479572       16.0967491397  MEMB      31              0.0000000000
      3314        31  CHL1      C6             18.3521627134      -14.7737891891       15.6543920275  MEMB      31              0.0000000000
      3315        31  CHL1      H6             19.1520442688      -14.5612192549       16.3757802537  MEMB      31              0.0000000000
      3316        31  CHL1      C7             18.6209400680      -14.3609305618       14.2272418305  MEMB      31              0.0000000000
      3317        31  CHL1      H7A            18.8690265483      -13.2753011909       14.1839162183  MEMB      31              0.0000000000
      3318        31  CHL1      H7B            19.5114327650      -14.9083176751       13.8523167017  MEMB      31              0.0000000000
      3319        31  CHL1      C8             17.4494534680      -14.5838219613       13.2263309505  MEMB      31              0.0000000000
      3320        31  CHL1      H8             16.8406902133      -13.6582013096       13.1746806771  MEMB      31              0.0000000000
      3321        31  CHL1      C14            18.0058133344      -14.8658313165       11.8424225287  MEMB      31              0.0000000000
      3322        31  CHL1      H14            18.5845459016      -15.8209142669       11.9621807680  MEMB      31              0.0000000000
      3323        31  CHL1      C15            19.0330788660      -13.8756288905       11.2651504878  MEMB      31              0.0000000000
      3324        31  CHL1      H15A           18.8004861347      -12.8392107279       11.5833403882  MEMB      31              0.0000000000
      3325        31  CHL1      H15B           20.0571435540      -14.1339633973       11.6012043030  MEMB      31              0.0000000000
      3326        31  CHL1      C16            18.8987413584      -14.0451018983        9.7418100794  MEMB      31              0.0000000000
      3327        31  CHL1      H16A           18.4225927844      -13.1077117034        9.3895889122  MEMB      31              0.0000000000
      3328        31  CHL1      H16B           19.8586371274      -14.1721380675        9.2077035568  MEMB      31              0.0000000000
      3329        31  CHL1      C17            17.9636513894      -15.2640107946        9.5540433293  MEMB      31              0.0000000000
      3330        31  CHL1      H17            18.5962626045      -16.1626855777        9.7567159942  MEMB      31              0.0000000000
      3331        31  CHL1      C13            16.9898518846      -15.1738354658       10.7440244948  MEMB      31              0.0000000000
      3332        31  CHL1      C18            15.9859990628      -14.0288106559       10.4564743943  MEMB      31              0.0000000000
      3333        31  CHL1      H18A           15.1409102158      -14.4089849138        9.8437136316  MEMB      31              0.0000000000
      3334        31  CHL1      H18B           15.5650812609      -13.6194999012       11.3929772538  MEMB      31              0.0000000000
      3335        31  CHL1      H18C           16.4393470562      -13.1939632794        9.8986233913  MEMB      31              0.0000000000
      3336        31  CHL1      C12            16.2158693023      -16.4263432203       11.1831854215  MEMB      31              0.0000000000
      3337        31  CHL1      H12A           15.4692082560      -16.7016970093       10.4094264894  MEMB      31              0.0000000000
      3338        31  CHL1      H12B           16.9256856238      -17.2745234329       11.2909225240  MEMB      31              0.0000000000
      3339        31  CHL1      C11            15.5335654878      -16.1571252577       12.5533417507  MEMB      31              0.0000000000
      3340        31  CHL1      H11A           14.7878957405      -15.3474790742       12.4256457067  MEMB      31              0.0000000000
      3341        31  CHL1      H11B           14.9790967861      -17.0701349696       12.8490044093  MEMB      31              0.0000000000
      3342        31  CHL1      C9             16.5609667400      -15.7481268617       13.6655952534  MEMB      31              0.0000000000
      3343        31  CHL1      H9             17.2372596856      -16.6392411620       13.7231900132  MEMB      31              0.0000000000
      3344        31  CHL1      C10            16.0251002522      -15.5571556939       15.1227024340  MEMB      31              0.0000000000
      3345        31  CHL1      C19            15.1910713621      -14.2479956808       15.2311585395  MEMB      31              0.0000000000
      3346        31  CHL1      H19A           14.4254824468      -14.3266760242       16.0306006203  MEMB      31              0.0000000000
      3347        31  CHL1      H19B           15.7990125268      -13.3464842705       15.4584916887  MEMB      31              0.0000000000
      3348        31  CHL1      H19C           14.7072720032      -14.0103664879       14.2698965938  MEMB      31              0.0000000000
      3349        31  CHL1      C1             15.2427765904      -16.8470414755       15.5500119355  MEMB      31              0.0000000000
      3350        31  CHL1      H1A            14.2857450532      -16.9219066897       15.0002662207  MEMB      31              0.0000000000
      3351        31  CHL1      H1B            15.8522523660      -17.7274399949       15.2465241814  MEMB      31              0.0000000000
      3352        31  CHL1      C2             14.9247227634      -16.9922132816       17.0510365733  MEMB      31              0.0000000000
      3353        31  CHL1      H2A            14.4558024070      -17.9834062961       17.2471857241  MEMB      31              0.0000000000
      3354        31  CHL1      H2B            14.1884304289      -16.2119060372       17.3524990864  MEMB      31              0.0000000000
      3355        31  CHL1      C20            17.3590837130      -15.4462158916        8.1654778854  MEMB      31              0.0000000000
      3356        31  CHL1      H20            16.3031271094      -15.7347424606        8.3576909245  MEMB      31              0.0000000000
      3357        31  CHL1      C21            18.0598330180      -16.6552760655        7.5020178438  MEMB      31              0.0000000000
      3358        31  CHL1      H21A           19.1565485349      -16.4947534912        7.4661984733  MEMB      31              0.0000000000
      3359        31  CHL1      H21B           17.6870566400      -16.8028225396        6.4663491312  MEMB      31              0.0000000000
      3360        31  CHL1      H21C           17.8482037214      -17.5791030717        8.0806539614  MEMB      31              0.0000000000
      3361        31  CHL1      C22            17.3890294299      -14.2111519977        7.2152376625  MEMB      31              0.0000000000
      3362        31  CHL1      H22A           17.2169478255      -13.2951199853        7.8025482046  MEMB      31              0.0000000000
      3363        31  CHL1      H22B           18.3979975352      -14.1278900406        6.7534809313  MEMB      31              0.0000000000
      3364        31  CHL1      C23            16.3187077739      -14.1676899596        6.1011265352  MEMB      31              0.0000000000
      3365        31  CHL1      H23A           15.9188617871      -13.1272832237        6.0302878734  MEMB      31              0.0000000000
      3366        31  CHL1      H23B           16.8031835923      -14.3794010318        5.1253493480  MEMB      31              0.0000000000
      3367        31  CHL1      C24            15.1495602358      -15.1303130948        6.3419100537  MEMB      31              0.0000000000
      3368        31  CHL1      H24A           15.5086321746      -16.1492802085        6.5987634452  MEMB      31              0.0000000000
      3369        31  CHL1      H24B           14.5321149641      -14.7458603475        7.1853769112  MEMB      31              0.0000000000
      3370        31  CHL1      C25            14.2664210084      -15.4105190925        5.1367454839  MEMB      31              0.0000000000
      3371        31  CHL1      H25            13.8181247506      -14.4410674985        4.8326371029  MEMB      31              0.0000000000
      3372        31  CHL1      C26            15.0659121761      -15.9818301487        3.9473061543  MEMB      31              0.0000000000
      3373        31  CHL1      H26A           16.0468772438      -16.3832444073        4.2786352131  MEMB      31              0.0000000000
      3374        31  CHL1      H26B           14.4920583373      -16.8002631006        3.4582007028  MEMB      31              0.0000000000
      3375        31  CHL1      H26C           15.2400505048      -15.1763320695        3.1981212943  MEMB      31              0.0000000000
      3376        31  CHL1      C27            13.1528652344      -16.3843070345        5.5535966658  MEMB      31              0.0000000000
      3377        31  CHL1      H27A           12.3936583749      -16.4769369861        4.7477216178  MEMB      31              0.0000000000
      3378        31  CHL1      H27B           13.5968877145      -17.3861610865        5.7455781719  MEMB      31              0.0000000000
      3379        31  CHL1      H27C           12.6547067974      -16.0372626749        6.4853299165  MEMB      31              0.0000000000
      3380        32  OSM       N             -18.6696146466       10.9616590578       22.1370582057  MEMB      32              0.0000000000
      3381        32  OSM       C15           -17.7626895306       10.9019941358       20.9551006995  MEMB      32              0.0000000000
      3382        32  OSM       H15A          -16.7295839900       10.9769835176       21.2490295450  MEMB      32              0.0000000000
      3383        32  OSM       H15B          -18.0310064237       11.7129490252       20.2874538514  MEMB      32              0.0000000000
      3384        32  OSM       H15C          -17.8863733461        9.9673087059       20.4223123111  MEMB      32              0.0000000000
      3385        32  OSM       C14           -18.3169132244        9.8745543267       23.0843296352  MEMB      32              0.0000000000
      3386        32  OSM       H14A          -18.3570713825        8.8892135346       22.6446203660  MEMB      32              0.0000000000
      3387        32  OSM       H14B          -18.9719749581        9.9222948017       23.9532850184  MEMB      32              0.0000000000
      3388        32  OSM       H14C          -17.3224228861       10.0372615208       23.4706565842  MEMB      32              0.0000000000
      3389        32  OSM       C13           -18.5192984878       12.2847166242       22.8604943142  MEMB      32              0.0000000000
      3390        32  OSM       H13A          -18.6892713985       13.1355179126       22.1949517121  MEMB      32              0.0000000000
      3391        32  OSM       H13B          -17.5716774656       12.3800993448       23.3651391152  MEMB      32              0.0000000000
      3392        32  OSM       H13C          -19.2832722118       12.3944387356       23.6255468337  MEMB      32              0.0000000000
      3393        32  OSM       C12           -20.1133725060       10.7705645831       21.6846767269  MEMB      32              0.0000000000
      3394        32  OSM       H12A          -20.7689844111       10.9728052695       22.5249888640  MEMB      32              0.0000000000
      3395        32  OSM       H12B          -20.2806336002        9.7333416207       21.4135788283  MEMB      32              0.0000000000
      3396        32  OSM       C11           -20.5970573344       11.6797522885       20.5430142903  MEMB      32              0.0000000000
      3397        32  OSM       H11A          -21.6764042449       11.4865078631       20.3400841660  MEMB      32              0.0000000000
      3398        32  OSM       H11B          -20.0348099972       11.4556360936       19.6079530252  MEMB      32              0.0000000000
      3399        32  OSM       P             -20.4781911867       14.2533824210       20.0250222525  MEMB      32              0.0000000000
      3400        32  OSM       O13           -21.9055874729       14.5991907794       19.8443046671  MEMB      32              0.0000000000
      3401        32  OSM       O14           -19.5784199355       15.2510845253       20.6558895416  MEMB      32              0.0000000000
      3402        32  OSM       O11           -19.8937117393       13.6638229105       18.6845953669  MEMB      32              0.0000000000
      3403        32  OSM       O12           -20.4099921935       13.0128807680       20.9676083586  MEMB      32              0.0000000000
      3404        32  OSM       C1S           -18.5341257854       13.8689081464       18.3262685151  MEMB      32              0.0000000000
      3405        32  OSM       H1S           -17.9770884480       12.9249449726       18.4818470173  MEMB      32              0.0000000000
      3406        32  OSM       H1T           -18.0273460717       14.6573327336       18.9316134786  MEMB      32              0.0000000000
      3407        32  OSM       NF            -19.3089866519       15.4568528363       16.6086606322  MEMB      32              0.0000000000
      3408        32  OSM       HNF           -20.1764096380       15.2808512705       16.1614328945  MEMB      32              0.0000000000
      3409        32  OSM       C2S           -18.4576713021       14.3053435743       16.8423697914  MEMB      32              0.0000000000
      3410        32  OSM       H2S           -17.4076591195       14.5913114331       16.6183924463  MEMB      32              0.0000000000
      3411        32  OSM       C3S           -18.8460509398       13.0951795994       15.9454920962  MEMB      32              0.0000000000
      3412        32  OSM       H3S           -19.8748346335       12.7556869324       16.1901404666  MEMB      32              0.0000000000
      3413        32  OSM       O3            -18.0116717352       11.9533455837       16.1188808094  MEMB      32              0.0000000000
      3414        32  OSM       HO3           -17.4281179442       12.1682070763       16.8445284752  MEMB      32              0.0000000000
      3415        32  OSM       C4S           -18.7948018146       13.4939872961       14.5030397643  MEMB      32              0.0000000000
      3416        32  OSM       H4S           -17.8181565675       13.8640148711       14.1632273283  MEMB      32              0.0000000000
      3417        32  OSM       C5S           -19.8133488340       13.3981275643       13.6311018022  MEMB      32              0.0000000000
      3418        32  OSM       H5S           -20.7745366893       12.9657558043       13.9583264377  MEMB      32              0.0000000000
      3419        32  OSM       C6S           -19.7343151887       13.8033294741       12.1874612744  MEMB      32              0.0000000000
      3420        32  OSM       H6S           -19.1693391388       14.7557084840       12.0654990638  MEMB      32              0.0000000000
      3421        32  OSM       H6T           -20.7579456559       13.9958738583       11.7988103070  MEMB      32              0.0000000000
      3422        32  OSM       C7S           -19.0554321910       12.7297365376       11.3170252732  MEMB      32              0.0000000000
      3423        32  OSM       H7S           -19.4471951139       11.7128380549       11.5427002381  MEMB      32              0.0000000000
      3424        32  OSM       H7T           -17.9697618934       12.7175862265       11.5635297584  MEMB      32              0.0000000000
      3425        32  OSM       C8S           -19.2194623328       13.0240538309        9.8175865564  MEMB      32              0.0000000000
      3426        32  OSM       H8S           -18.4283838181       12.4842712532        9.2494505333  MEMB      32              0.0000000000
      3427        32  OSM       H8T           -19.0608640715       14.1151264806        9.6580383367  MEMB      32              0.0000000000
      3428        32  OSM       C9S           -20.5962566090       12.6240124902        9.2472658523  MEMB      32              0.0000000000
      3429        32  OSM       H9S           -20.6872480321       13.0722570651        8.2327667795  MEMB      32              0.0000000000
      3430        32  OSM       H9T           -21.4094875857       13.0443647721        9.8764155866  MEMB      32              0.0000000000
      3431        32  OSM       C10S          -20.7728018778       11.1031858917        9.1151870535  MEMB      32              0.0000000000
      3432        32  OSM       H10S          -20.6797870345       10.6273796488       10.1167675843  MEMB      32              0.0000000000
      3433        32  OSM       H10T          -19.9371069285       10.7264578777        8.4971247437  MEMB      32              0.0000000000
      3434        32  OSM       C11S          -22.0936536084       10.6376430421        8.4714172932  MEMB      32              0.0000000000
      3435        32  OSM       H11S          -22.9382158062       10.9307742351        9.1334169970  MEMB      32              0.0000000000
      3436        32  OSM       H11T          -22.0710299416        9.5234030473        8.4408958276  MEMB      32              0.0000000000
      3437        32  OSM       C12S          -22.3701069826       11.1445250243        7.0382795293  MEMB      32              0.0000000000
      3438        32  OSM       H12S          -22.5977730083       12.2327213169        7.0705065218  MEMB      32              0.0000000000
      3439        32  OSM       H12T          -23.2807409875       10.6232743233        6.6643920913  MEMB      32              0.0000000000
      3440        32  OSM       C13S          -21.2187622277       10.9013553741        6.0413961364  MEMB      32              0.0000000000
      3441        32  OSM       H13S          -20.8272737460        9.8688918726        6.1862016670  MEMB      32              0.0000000000
      3442        32  OSM       H13T          -20.3926464289       11.6083890492        6.2766214491  MEMB      32              0.0000000000
      3443        32  OSM       C14S          -21.6171463810       11.0482927723        4.5554385921  MEMB      32              0.0000000000
      3444        32  OSM       H14S          -22.2321988851       11.9617740943        4.4073681326  MEMB      32              0.0000000000
      3445        32  OSM       H14T          -22.2436624795       10.1671943890        4.2997975244  MEMB      32              0.0000000000
      3446        32  OSM       C15S          -20.3956822297       11.0985360344        3.6140099735  MEMB      32              0.0000000000
      3447        32  OSM       H15S          -19.5921400034       10.5291351094        4.1246272011  MEMB      32              0.0000000000
      3448        32  OSM       H15T          -20.0432940801       12.1409679744        3.4841800980  MEMB      32              0.0000000000
      3449        32  OSM       C16S          -20.5605285686       10.4777221986        2.2172453308  MEMB      32              0.0000000000
      3450        32  OSM       H16S          -20.7743830008        9.3950132019        2.3470210132  MEMB      32              0.0000000000
      3451        32  OSM       H16T          -19.5909741671       10.5539526363        1.6735082486  MEMB      32              0.0000000000
      3452        32  OSM       C17S          -21.6422125234       11.1249650448        1.3451427170  MEMB      32              0.0000000000
      3453        32  OSM       H17S          -21.3537874383       12.1677964457        1.0926047751  MEMB      32              0.0000000000
      3454        32  OSM       H17T          -22.5795103757       11.2077853820        1.9362574394  MEMB      32              0.0000000000
      3455        32  OSM       C18S          -21.9218822819       10.3338370481        0.0603798516  MEMB      32              0.0000000000
      3456        32  OSM       H18S          -21.1301143243       10.4990665138       -0.6955126773  MEMB      32              0.0000000000
      3457        32  OSM       H18T          -22.9050333099       10.6266323051       -0.3672864762  MEMB      32              0.0000000000
      3458        32  OSM       H18U          -21.9701425741        9.2454272603        0.2543127225  MEMB      32              0.0000000000
      3459        32  OSM       C1F           -19.1326207232       16.6374115896       17.1966642928  MEMB      32              0.0000000000
      3460        32  OSM       OF            -18.1512394052       16.8552573191       17.8984224921  MEMB      32              0.0000000000
      3461        32  OSM       C2F           -20.2109643092       17.6745874903       17.0115779616  MEMB      32              0.0000000000
      3462        32  OSM       H2F           -19.7296315488       18.6755725382       17.0137516356  MEMB      32              0.0000000000
      3463        32  OSM       H2G           -20.8770166244       17.6196473556       17.9014611695  MEMB      32              0.0000000000
      3464        32  OSM       C3F           -21.0789420454       17.5285751467       15.7257976049  MEMB      32              0.0000000000
      3465        32  OSM       H3F           -21.8155130112       18.3632163622       15.7351214588  MEMB      32              0.0000000000
      3466        32  OSM       H3G           -21.6650788503       16.5854602924       15.7542805412  MEMB      32              0.0000000000
      3467        32  OSM       C4F           -20.2801265057       17.6167135645       14.4140327093  MEMB      32              0.0000000000
      3468        32  OSM       H4F           -19.7568247494       16.6497027042       14.2452281065  MEMB      32              0.0000000000
      3469        32  OSM       H4G           -19.4952136332       18.4013344180       14.5277898583  MEMB      32              0.0000000000
      3470        32  OSM       C5F           -21.0932474218       17.9465403940       13.1468736007  MEMB      32              0.0000000000
      3471        32  OSM       H5F           -21.6170068398       18.9193884060       13.2821495659  MEMB      32              0.0000000000
      3472        32  OSM       H5G           -21.8623704055       17.1657721371       12.9629317666  MEMB      32              0.0000000000
      3473        32  OSM       C6F           -20.1394805823       18.0442125163       11.9443841695  MEMB      32              0.0000000000
      3474        32  OSM       H6F           -19.5624042108       17.0966713522       11.8585694591  MEMB      32              0.0000000000
      3475        32  OSM       H6G           -19.4118068084       18.8567787546       12.1775870163  MEMB      32              0.0000000000
      3476        32  OSM       C7F           -20.7620876525       18.3579615943       10.5731704414  MEMB      32              0.0000000000
      3477        32  OSM       H7F           -19.9195201406       18.6551587755        9.8997398184  MEMB      32              0.0000000000
      3478        32  OSM       H7G           -21.4437408407       19.2316848178       10.6684248754  MEMB      32              0.0000000000
      3479        32  OSM       C8F           -21.4867164515       17.1628865341        9.9174422026  MEMB      32              0.0000000000
      3480        32  OSM       H8F           -22.3411184607       16.8642334419       10.5667095733  MEMB      32              0.0000000000
      3481        32  OSM       H8G           -20.7928183191       16.2934475090        9.8769053516  MEMB      32              0.0000000000
      3482        32  OSM       C9F           -21.9943379767       17.5433603278        8.5450577109  MEMB      32              0.0000000000
      3483        32  OSM       H9F           -22.8613076796       18.2238445373        8.5698209801  MEMB      32              0.0000000000
      3484        32  OSM       C10F          -21.5094826261       17.1844959888        7.3368003187  MEMB      32              0.0000000000
      3485        32  OSM       H10F          -22.0024729048       17.5992260990        6.4427650417  MEMB      32              0.0000000000
      3486        32  OSM       C11F          -20.3263523609       16.3032806087        7.0077920159  MEMB      32              0.0000000000
      3487        32  OSM       H11F          -19.8775677430       15.8375582036        7.9128323236  MEMB      32              0.0000000000
      3488        32  OSM       H11G          -19.5361711857       16.9320189423        6.5432215761  MEMB      32              0.0000000000
      3489        32  OSM       C12F          -20.6999156804       15.1884693606        6.0046323169  MEMB      32              0.0000000000
      3490        32  OSM       H12F          -21.2568530953       15.6101757364        5.1385905611  MEMB      32              0.0000000000
      3491        32  OSM       H12G          -21.3818560497       14.4687347734        6.5157842987  MEMB      32              0.0000000000
      3492        32  OSM       C13F          -19.4946392307       14.3944845121        5.4636102176  MEMB      32              0.0000000000
      3493        32  OSM       H13F          -19.8858077987       13.5413974693        4.8780582820  MEMB      32              0.0000000000
      3494        32  OSM       H13G          -18.9412391715       13.9676961398        6.3313960478  MEMB      32              0.0000000000
      3495        32  OSM       C14F          -18.4952537932       15.1803573262        4.5948684586  MEMB      32              0.0000000000
      3496        32  OSM       H14F          -17.5991723317       14.5384821080        4.4249294962  MEMB      32              0.0000000000
      3497        32  OSM       H14G          -18.1582891499       16.0758217568        5.1580471810  MEMB      32              0.0000000000
      3498        32  OSM       C15F          -18.9795842816       15.6444541712        3.2064896314  MEMB      32              0.0000000000
      3499        32  OSM       H15F          -19.9747767033       16.1121967188        3.2969830600  MEMB      32              0.0000000000
      3500        32  OSM       H15G          -19.0623282089       14.7502090810        2.5497444851  MEMB      32              0.0000000000
      3501        32  OSM       C16F          -17.9655751603       16.6523149516        2.6280981559  MEMB      32              0.0000000000
      3502        32  OSM       H16F          -17.0052393711       16.1157000630        2.7059232039  MEMB      32              0.0000000000
      3503        32  OSM       H16G          -17.9171006560       17.5580274626        3.2719804081  MEMB      32              0.0000000000
      3504        32  OSM       C17F          -18.0243997683       17.0476964024        1.1452816658  MEMB      32              0.0000000000
      3505        32  OSM       H17F          -17.0709474077       17.5673093436        0.8923258829  MEMB      32              0.0000000000
      3506        32  OSM       H17G          -18.7938475134       17.8200851987        0.9737078430  MEMB      32              0.0000000000
      3507        32  OSM       C18F          -18.1968082715       15.8442631018        0.2173814583  MEMB      32              0.0000000000
      3508        32  OSM       H18F          -19.1545619556       15.3243152554        0.4359525202  MEMB      32              0.0000000000
      3509        32  OSM       H18G          -17.3658259413       15.1237413453        0.3849452986  MEMB      32              0.0000000000
      3510        32  OSM       H18H          -18.2000221243       16.1531039500       -0.8489079641  MEMB      32              0.0000000000
      3511        33  SLPC      N              25.1217934642        5.5766567970       18.0675309806  MEMB      33              0.0000000000
      3512        33  SLPC      C13            26.4090505467        5.7314239879       18.7686721523  MEMB      33              0.0000000000
      3513        33  SLPC      H13A           26.4331301284        6.5280079552       19.4998423250  MEMB      33              0.0000000000
      3514        33  SLPC      H13B           26.7175944404        4.8331355787       19.2948369115  MEMB      33              0.0000000000
      3515        33  SLPC      H13C           27.2412945992        5.9254739191       18.0916416008  MEMB      33              0.0000000000
      3516        33  SLPC      C14            24.0780206525        5.2923145461       19.0801729974  MEMB      33              0.0000000000
      3517        33  SLPC      H14A           23.2565057078        4.7206739534       18.6439484059  MEMB      33              0.0000000000
      3518        33  SLPC      H14B           24.4506955704        4.7655223093       19.9398133285  MEMB      33              0.0000000000
      3519        33  SLPC      H14C           23.6200661345        6.2186674264       19.4095231966  MEMB      33              0.0000000000
      3520        33  SLPC      C15            25.2069087069        4.4189553627       17.1313927727  MEMB      33              0.0000000000
      3521        33  SLPC      H15A           24.2499616384        4.3626803460       16.5998813196  MEMB      33              0.0000000000
      3522        33  SLPC      H15B           25.9948623482        4.5201512144       16.4013569989  MEMB      33              0.0000000000
      3523        33  SLPC      H15C           25.3274958779        3.4801572532       17.6558564878  MEMB      33              0.0000000000
      3524        33  SLPC      C12            24.7595611931        6.8446281202       17.3060172475  MEMB      33              0.0000000000
      3525        33  SLPC      H12A           25.5811036536        7.1060741109       16.6495953954  MEMB      33              0.0000000000
      3526        33  SLPC      H12B           24.6676760191        7.6566141931       18.0155569660  MEMB      33              0.0000000000
      3527        33  SLPC      C11            23.4501740259        6.8655857908       16.4735589962  MEMB      33              0.0000000000
      3528        33  SLPC      H11A           23.5040731347        6.1514625819       15.6295892210  MEMB      33              0.0000000000
      3529        33  SLPC      H11B           23.4156932410        7.8683326351       15.9961816530  MEMB      33              0.0000000000
      3530        33  SLPC      P              21.2956525498        5.4465337794       17.1807431105  MEMB      33              0.0000000000
      3531        33  SLPC      O13            20.8241983666        5.2053534361       18.5740851782  MEMB      33              0.0000000000
      3532        33  SLPC      O14            20.3478427454        5.6987233915       16.0783091211  MEMB      33              0.0000000000
      3533        33  SLPC      O12            22.2820245905        6.6934514836       17.2755414444  MEMB      33              0.0000000000
      3534        33  SLPC      O11            22.3173490711        4.2886493551       16.7284953553  MEMB      33              0.0000000000
      3535        33  SLPC      C1             22.0207308570        3.3959871941       15.6322452391  MEMB      33              0.0000000000
      3536        33  SLPC      HA             21.6859869762        2.4227580374       16.0567951301  MEMB      33              0.0000000000
      3537        33  SLPC      HB             21.1957195018        3.7727168846       14.9823474194  MEMB      33              0.0000000000
      3538        33  SLPC      C2             23.2268756012        3.1265404360       14.6593680363  MEMB      33              0.0000000000
      3539        33  SLPC      HS             23.9885378079        2.5649330673       15.2504090716  MEMB      33              0.0000000000
      3540        33  SLPC      O21            23.7849632382        4.3674002369       14.1915070988  MEMB      33              0.0000000000
      3541        33  SLPC      C21            24.8551147363        4.2389809238       13.4246653425  MEMB      33              0.0000000000
      3542        33  SLPC      O22            25.7284577835        3.4028000080       13.5707442135  MEMB      33              0.0000000000
      3543        33  SLPC      C22            24.7522089668        5.2332633774       12.2631507170  MEMB      33              0.0000000000
      3544        33  SLPC      H2R            23.6732874079        5.3089629529       11.9989980493  MEMB      33              0.0000000000
      3545        33  SLPC      H2S            25.0914476151        6.2233675172       12.6279783026  MEMB      33              0.0000000000
      3546        33  SLPC      C3             22.8295802161        2.2604545795       13.4157670762  MEMB      33              0.0000000000
      3547        33  SLPC      HX             22.4406218231        1.2944668719       13.7833797110  MEMB      33              0.0000000000
      3548        33  SLPC      HY             23.7432008424        2.0025953738       12.8367794436  MEMB      33              0.0000000000
      3549        33  SLPC      O31            21.9152333142        2.9752371387       12.5459716905  MEMB      33              0.0000000000
      3550        33  SLPC      C31            20.8079193730        2.3214512457       12.1763884049  MEMB      33              0.0000000000
      3551        33  SLPC      O32            20.4995101072        1.2078540958       12.5271351759  MEMB      33              0.0000000000
      3552        33  SLPC      C32            19.9384662924        3.1264850388       11.2543613346  MEMB      33              0.0000000000
      3553        33  SLPC      H2X            19.0906130139        3.4780506487       11.8554829139  MEMB      33              0.0000000000
      3554        33  SLPC      H2Y            19.5190825400        2.4342440160       10.4960895916  MEMB      33              0.0000000000
      3555        33  SLPC      C23            25.5561533566        4.8108365268       11.0051780208  MEMB      33              0.0000000000
      3556        33  SLPC      H3R            25.2043517513        3.8123501503       10.6545668481  MEMB      33              0.0000000000
      3557        33  SLPC      H3S            26.6339172347        4.7161300893       11.2614325484  MEMB      33              0.0000000000
      3558        33  SLPC      C24            25.3942189514        5.8357266252        9.8646152214  MEMB      33              0.0000000000
      3559        33  SLPC      H4R            25.4855628025        6.8607998713       10.2802783989  MEMB      33              0.0000000000
      3560        33  SLPC      H4S            24.3867181736        5.7322281543        9.4510555189  MEMB      33              0.0000000000
      3561        33  SLPC      C25            26.3126943667        5.6891746477        8.6454767133  MEMB      33              0.0000000000
      3562        33  SLPC      H5R            26.1293250559        4.7167817367        8.1410457648  MEMB      33              0.0000000000
      3563        33  SLPC      H5S            27.3676907462        5.6873574514        8.9985393604  MEMB      33              0.0000000000
      3564        33  SLPC      C26            26.1491813845        6.8408194858        7.6236831781  MEMB      33              0.0000000000
      3565        33  SLPC      H6R            26.9693650180        6.7439456579        6.8942662519  MEMB      33              0.0000000000
      3566        33  SLPC      H6S            26.2843996966        7.8124845638        8.1477915938  MEMB      33              0.0000000000
      3567        33  SLPC      C27            24.8506386393        6.9047842100        6.7955298584  MEMB      33              0.0000000000
      3568        33  SLPC      H7R            24.9261613468        7.7297502516        6.0520512924  MEMB      33              0.0000000000
      3569        33  SLPC      H7S            24.0080592693        7.1564295144        7.4805282225  MEMB      33              0.0000000000
      3570        33  SLPC      C28            24.4567048537        5.6069949803        6.0589494943  MEMB      33              0.0000000000
      3571        33  SLPC      H8R            23.5143153390        5.8239547369        5.5047931921  MEMB      33              0.0000000000
      3572        33  SLPC      H8S            24.1850138074        4.9092499122        6.8733861257  MEMB      33              0.0000000000
      3573        33  SLPC      C29            25.4137749029        4.9278276606        5.1075203686  MEMB      33              0.0000000000
      3574        33  SLPC      H9R            25.7809019447        5.5431994140        4.2712772174  MEMB      33              0.0000000000
      3575        33  SLPC      C210           25.8067035813        3.6394603426        5.1956497762  MEMB      33              0.0000000000
      3576        33  SLPC      H10R           26.4572833007        3.2243117151        4.4077062845  MEMB      33              0.0000000000
      3577        33  SLPC      C211           25.3816722327        2.6358746269        6.2473374673  MEMB      33              0.0000000000
      3578        33  SLPC      H11R           24.9741535729        3.1142782667        7.1619336813  MEMB      33              0.0000000000
      3579        33  SLPC      H11S           26.2958670948        2.1136863974        6.6018849634  MEMB      33              0.0000000000
      3580        33  SLPC      C212           24.4069751257        1.5901859002        5.7842487313  MEMB      33              0.0000000000
      3581        33  SLPC      H12R           24.7980327002        0.5637925120        5.8715105376  MEMB      33              0.0000000000
      3582        33  SLPC      C213           23.1554281286        1.7242442038        5.3088203013  MEMB      33              0.0000000000
      3583        33  SLPC      H13R           22.6657707171        0.8236975723        4.9525965163  MEMB      33              0.0000000000
      3584        33  SLPC      C214           22.2756994596        2.9049833880        5.0644630241  MEMB      33              0.0000000000
      3585        33  SLPC      H14R           22.6555077935        3.7765265008        5.6305114271  MEMB      33              0.0000000000
      3586        33  SLPC      H14S           21.2621970317        2.6904530736        5.4700009723  MEMB      33              0.0000000000
      3587        33  SLPC      C215           22.1348413233        3.3125413571        3.5765855187  MEMB      33              0.0000000000
      3588        33  SLPC      H15R           23.0507171327        3.8794144868        3.3128400285  MEMB      33              0.0000000000
      3589        33  SLPC      H15S           21.2764516028        4.0002976358        3.5163074229  MEMB      33              0.0000000000
      3590        33  SLPC      C216           21.8631477853        2.2327248502        2.5013832848  MEMB      33              0.0000000000
      3591        33  SLPC      H16R           20.7772954378        2.2054619536        2.2578782291  MEMB      33              0.0000000000
      3592        33  SLPC      H16S           22.1972200517        1.2618636063        2.8963393865  MEMB      33              0.0000000000
      3593        33  SLPC      C217           22.7094885713        2.4126759883        1.2320399870  MEMB      33              0.0000000000
      3594        33  SLPC      H17R           23.7309471124        2.1267455570        1.5232091218  MEMB      33              0.0000000000
      3595        33  SLPC      H17S           22.7613264662        3.4690231460        0.9920933697  MEMB      33              0.0000000000
      3596        33  SLPC      C218           22.3311977535        1.7027745721       -0.0703675821  MEMB      33              0.0000000000
      3597        33  SLPC      H18R           22.6755503515        2.3089674394       -0.9387018774  MEMB      33              0.0000000000
      3598        33  SLPC      H18S           21.2390118155        1.5456784622       -0.1657904397  MEMB      33              0.0000000000
      3599        33  SLPC      H18T           22.8587078734        0.7313985312       -0.1512736842  MEMB      33              0.0000000000
      3600        33  SLPC      C33            20.6025897323        4.3244492270       10.5875040783  MEMB      33              0.0000000000
      3601        33  SLPC      H3X            21.2591152415        4.9092957930       11.2696922942  MEMB      33              0.0000000000
      3602        33  SLPC      H3Y            19.7730776687        5.0110015677       10.3052418851  MEMB      33              0.0000000000
      3603        33  SLPC      C34            21.3144886919        3.9124494056        9.3073193850  MEMB      33              0.0000000000
      3604        33  SLPC      H4X            20.6111318722        3.3940848115        8.6168564102  MEMB      33              0.0000000000
      3605        33  SLPC      H4Y            22.1250213977        3.1844857977        9.5387289995  MEMB      33              0.0000000000
      3606        33  SLPC      C35            21.8681508944        5.1663415468        8.6348003785  MEMB      33              0.0000000000
      3607        33  SLPC      H5X            22.3983854348        4.8826536736        7.7045987861  MEMB      33              0.0000000000
      3608        33  SLPC      H5Y            22.5586010737        5.5980764503        9.3814535264  MEMB      33              0.0000000000
      3609        33  SLPC      C36            20.8409140820        6.2756159001        8.3523599317  MEMB      33              0.0000000000
      3610        33  SLPC      H6X            21.3352227573        7.1535912307        7.8926089729  MEMB      33              0.0000000000
      3611        33  SLPC      H6Y            20.4397172976        6.6330594406        9.3284994560  MEMB      33              0.0000000000
      3612        33  SLPC      C37            19.6573113859        5.7992855979        7.5082413627  MEMB      33              0.0000000000
      3613        33  SLPC      H7X            18.8383260028        6.5496820127        7.5347941528  MEMB      33              0.0000000000
      3614        33  SLPC      H7Y            19.2831401745        4.8802431480        8.0069115459  MEMB      33              0.0000000000
      3615        33  SLPC      C38            19.9641911293        5.4040279108        6.0553052353  MEMB      33              0.0000000000
      3616        33  SLPC      H8X            19.1468089457        4.7379607622        5.7147989195  MEMB      33              0.0000000000
      3617        33  SLPC      H8Y            20.9188001134        4.8503271197        6.0256378811  MEMB      33              0.0000000000
      3618        33  SLPC      C39            20.0253391808        6.5692887636        5.0751588743  MEMB      33              0.0000000000
      3619        33  SLPC      H9X            20.9614299247        7.1225966388        5.3188035226  MEMB      33              0.0000000000
      3620        33  SLPC      H9Y            19.1354265488        7.2221198770        5.2328117840  MEMB      33              0.0000000000
      3621        33  SLPC      C310           20.1242059149        6.2066191891        3.5811591502  MEMB      33              0.0000000000
      3622        33  SLPC      H10X           19.4940465784        5.3359973141        3.3088409130  MEMB      33              0.0000000000
      3623        33  SLPC      H10Y           21.1927899636        5.9414550639        3.4394687209  MEMB      33              0.0000000000
      3624        33  SLPC      C311           19.7962522080        7.4337197464        2.7189126629  MEMB      33              0.0000000000
      3625        33  SLPC      H11X           20.3223378590        8.2251728957        3.2799938346  MEMB      33              0.0000000000
      3626        33  SLPC      H11Y           18.7094911875        7.6561527084        2.7233152168  MEMB      33              0.0000000000
      3627        33  SLPC      C312           20.3990758228        7.5981146553        1.3159029802  MEMB      33              0.0000000000
      3628        33  SLPC      H12X           20.3780844188        8.6937802380        1.1001636633  MEMB      33              0.0000000000
      3629        33  SLPC      H12Y           19.8084011729        7.1379086738        0.5045520029  MEMB      33              0.0000000000
      3630        33  SLPC      C313           21.8522211624        7.1506537720        1.2313313115  MEMB      33              0.0000000000
      3631        33  SLPC      H13X           22.3261882076        7.1567123919        2.2341549211  MEMB      33              0.0000000000
      3632        33  SLPC      H13Y           22.4123522500        7.8800764246        0.6286755560  MEMB      33              0.0000000000
      3633        33  SLPC      C314           22.0296297726        5.8014693001        0.5466919807  MEMB      33              0.0000000000
      3634        33  SLPC      H14X           21.3619137962        5.7238246066       -0.3381705985  MEMB      33              0.0000000000
      3635        33  SLPC      H14Y           21.7010480556        5.0293212384        1.2720277997  MEMB      33              0.0000000000
      3636        33  SLPC      C315           23.4830973446        5.6235852564        0.0792671472  MEMB      33              0.0000000000
      3637        33  SLPC      H15X           23.7617055039        6.5207027303       -0.5127473992  MEMB      33              0.0000000000
      3638        33  SLPC      H15Y           23.5655286181        4.7420335805       -0.5953666001  MEMB      33              0.0000000000
      3639        33  SLPC      C316           24.4512636505        5.4764381677        1.2577876551  MEMB      33              0.0000000000
      3640        33  SLPC      H16X           24.3070032177        4.5009782240        1.7658579105  MEMB      33              0.0000000000
      3641        33  SLPC      H16Y           24.2485319999        6.2626441299        2.0176071567  MEMB      33              0.0000000000
      3642        33  SLPC      C317           25.9255159506        5.5964744468        0.8960882666  MEMB      33              0.0000000000
      3643        33  SLPC      H17X           26.4453716314        5.3636596649        1.8438204455  MEMB      33              0.0000000000
      3644        33  SLPC      H17Y           26.1529176748        6.6397473067        0.5820301126  MEMB      33              0.0000000000
      3645        33  SLPC      C318           26.4827269364        4.6295028563       -0.1285242438  MEMB      33              0.0000000000
      3646        33  SLPC      H18X           26.6612491508        3.6436435143        0.3247590412  MEMB      33              0.0000000000
      3647        33  SLPC      H18Y           27.4832297618        4.9680854208       -0.4402137840  MEMB      33              0.0000000000
      3648        33  SLPC      H18Z           25.8248169912        4.5101377743       -1.0147820751  MEMB      33              0.0000000000
      3649        34  CHL1      C3             -9.5320768030       22.4640278905       17.6369002375  MEMB      34              0.0000000000
      3650        34  CHL1      H3             -9.6668469834       23.5647627870       17.7541126348  MEMB      34              0.0000000000
      3651        34  CHL1      O3             -9.6970518799       21.8439683005       18.9123773592  MEMB      34              0.0000000000
      3652        34  CHL1      H3'           -10.4643276491       22.2893093703       19.3355422677  MEMB      34              0.0000000000
      3653        34  CHL1      C4            -10.5870338353       21.9059668479       16.6584534168  MEMB      34              0.0000000000
      3654        34  CHL1      H4A           -10.5244577988       20.7969521272       16.7002605540  MEMB      34              0.0000000000
      3655        34  CHL1      H4B           -11.5941980529       22.1721540449       17.0515035352  MEMB      34              0.0000000000
      3656        34  CHL1      C5            -10.4118244371       22.3390937550       15.2143201792  MEMB      34              0.0000000000
      3657        34  CHL1      C6            -11.4288401864       22.8552683232       14.5023878966  MEMB      34              0.0000000000
      3658        34  CHL1      H6            -12.4229815752       22.9600279614       14.9629884845  MEMB      34              0.0000000000
      3659        34  CHL1      C7            -11.3234909094       23.1953484274       13.0418776397  MEMB      34              0.0000000000
      3660        34  CHL1      H7A           -12.1744415543       22.7632571579       12.4777046497  MEMB      34              0.0000000000
      3661        34  CHL1      H7B           -11.3428797644       24.3008827206       12.9069011268  MEMB      34              0.0000000000
      3662        34  CHL1      C8            -10.0410742630       22.6349729917       12.3872276940  MEMB      34              0.0000000000
      3663        34  CHL1      H8            -10.1787855168       21.5349808215       12.3030383105  MEMB      34              0.0000000000
      3664        34  CHL1      C14            -9.8941307542       23.1696192152       10.9776390929  MEMB      34              0.0000000000
      3665        34  CHL1      H14            -9.9014801386       24.2860716885       11.0382568131  MEMB      34              0.0000000000
      3666        34  CHL1      C15           -11.0214188085       22.7613152889       10.0226986264  MEMB      34              0.0000000000
      3667        34  CHL1      H15A          -11.1889624442       21.6633715947       10.0972111110  MEMB      34              0.0000000000
      3668        34  CHL1      H15B          -11.9838206957       23.2582453016       10.2027534148  MEMB      34              0.0000000000
      3669        34  CHL1      C16           -10.4631784022       23.1117114465        8.6556247650  MEMB      34              0.0000000000
      3670        34  CHL1      H16A          -10.7766434432       22.3166135291        7.9452149451  MEMB      34              0.0000000000
      3671        34  CHL1      H16B          -10.8517964307       24.0809721605        8.2915845241  MEMB      34              0.0000000000
      3672        34  CHL1      C17            -8.9085293087       23.2016909958        8.7874844506  MEMB      34              0.0000000000
      3673        34  CHL1      H17            -8.6160629880       24.2702805512        8.6915001607  MEMB      34              0.0000000000
      3674        34  CHL1      C13            -8.5928989944       22.7911485678       10.2721817702  MEMB      34              0.0000000000
      3675        34  CHL1      C18            -8.4093364912       21.2723637662       10.2669848258  MEMB      34              0.0000000000
      3676        34  CHL1      H18A           -7.4034795001       20.9761766684        9.9130009059  MEMB      34              0.0000000000
      3677        34  CHL1      H18B           -8.5554879115       20.8021478894       11.2554982032  MEMB      34              0.0000000000
      3678        34  CHL1      H18C           -9.1626070421       20.8708696719        9.5760654746  MEMB      34              0.0000000000
      3679        34  CHL1      C12            -7.4525609681       23.4364227679       11.0949099235  MEMB      34              0.0000000000
      3680        34  CHL1      H12A           -6.4691966128       23.2246894223       10.6261449507  MEMB      34              0.0000000000
      3681        34  CHL1      H12B           -7.5903185559       24.5378689469       11.1302335738  MEMB      34              0.0000000000
      3682        34  CHL1      C11            -7.4576234997       22.8807874808       12.5542306931  MEMB      34              0.0000000000
      3683        34  CHL1      H11A           -7.1156133134       21.8269461643       12.5228391031  MEMB      34              0.0000000000
      3684        34  CHL1      H11B           -6.7089923589       23.4361206956       13.1582422514  MEMB      34              0.0000000000
      3685        34  CHL1      C9             -8.8453180137       22.9582576894       13.2792889069  MEMB      34              0.0000000000
      3686        34  CHL1      H9             -8.9574756016       24.0462507895       13.5219100590  MEMB      34              0.0000000000
      3687        34  CHL1      C10            -8.9815275292       22.1943444943       14.6378995922  MEMB      34              0.0000000000
      3688        34  CHL1      C19            -8.7492304018       20.6754876680       14.4176458246  MEMB      34              0.0000000000
      3689        34  CHL1      H19A           -8.8137936700       20.1148570985       15.3710931201  MEMB      34              0.0000000000
      3690        34  CHL1      H19B           -9.4934323800       20.2328637128       13.7280902883  MEMB      34              0.0000000000
      3691        34  CHL1      H19C           -7.7377651215       20.4905609607       14.0103428401  MEMB      34              0.0000000000
      3692        34  CHL1      C1             -7.9378040017       22.7300942173       15.6592201104  MEMB      34              0.0000000000
      3693        34  CHL1      H1A            -6.9220603676       22.4344872129       15.3115409260  MEMB      34              0.0000000000
      3694        34  CHL1      H1B            -7.9833737166       23.8390653038       15.6630324033  MEMB      34              0.0000000000
      3695        34  CHL1      C2             -8.1152040515       22.2052934806       17.1011641159  MEMB      34              0.0000000000
      3696        34  CHL1      H2A            -7.3608292204       22.6726533287       17.7702987486  MEMB      34              0.0000000000
      3697        34  CHL1      H2B            -7.9173078495       21.1115191013       17.1071346530  MEMB      34              0.0000000000
      3698        34  CHL1      C20            -8.3171993990       22.3983090173        7.5999381021  MEMB      34              0.0000000000
      3699        34  CHL1      H20            -8.6038399284       21.3279700586        7.7025391413  MEMB      34              0.0000000000
      3700        34  CHL1      C21            -6.8158539713       22.5073370141        7.5942649611  MEMB      34              0.0000000000
      3701        34  CHL1      H21A           -6.3971368567       21.9958983308        8.4812849453  MEMB      34              0.0000000000
      3702        34  CHL1      H21B           -6.5140531119       23.5783192367        7.6140875893  MEMB      34              0.0000000000
      3703        34  CHL1      H21C           -6.3931916532       22.0302560420        6.6826308480  MEMB      34              0.0000000000
      3704        34  CHL1      C22            -8.8160810345       22.8148932970        6.1953212832  MEMB      34              0.0000000000
      3705        34  CHL1      H22A           -9.7356763252       23.4163495010        6.3109984640  MEMB      34              0.0000000000
      3706        34  CHL1      H22B           -8.0579874755       23.4687940157        5.7031133120  MEMB      34              0.0000000000
      3707        34  CHL1      C23            -9.1642899294       21.6579499540        5.2309555034  MEMB      34              0.0000000000
      3708        34  CHL1      H23A           -8.2291051773       21.2528350762        4.7866246432  MEMB      34              0.0000000000
      3709        34  CHL1      H23B           -9.6815219047       20.8434593048        5.7824196849  MEMB      34              0.0000000000
      3710        34  CHL1      C24           -10.0774675690       22.2052264877        4.1243466341  MEMB      34              0.0000000000
      3711        34  CHL1      H24A          -11.0240643721       22.5756802642        4.5769112178  MEMB      34              0.0000000000
      3712        34  CHL1      H24B           -9.5335375622       23.0786682267        3.7235596988  MEMB      34              0.0000000000
      3713        34  CHL1      C25           -10.4148019628       21.3327837758        2.8996786090  MEMB      34              0.0000000000
      3714        34  CHL1      H25           -10.9341827423       20.4003894255        3.2185465300  MEMB      34              0.0000000000
      3715        34  CHL1      C26           -11.3641514849       22.1359458113        1.9914575270  MEMB      34              0.0000000000
      3716        34  CHL1      H26A          -11.6214640794       21.5792701238        1.0678720276  MEMB      34              0.0000000000
      3717        34  CHL1      H26B          -12.2988900610       22.4083274214        2.5248084930  MEMB      34              0.0000000000
      3718        34  CHL1      H26C          -10.8550406090       23.0721989314        1.6935013235  MEMB      34              0.0000000000
      3719        34  CHL1      C27            -9.1510071592       20.9666741476        2.1071916525  MEMB      34              0.0000000000
      3720        34  CHL1      H27A           -9.4304913906       20.5315964493        1.1236316245  MEMB      34              0.0000000000
      3721        34  CHL1      H27B           -8.5458806791       21.8818332840        1.9272258754  MEMB      34              0.0000000000
      3722        34  CHL1      H27C           -8.5247493328       20.2362438197        2.6560448601  MEMB      34              0.0000000000
      3723        35  CHL1      C3            -24.9709058103       -3.6300242164       17.6266361092  MEMB      35              0.0000000000
      3724        35  CHL1      H3            -25.3644709205       -2.5845649987       17.6120047912  MEMB      35              0.0000000000
      3725        35  CHL1      O3            -24.6464718883       -3.9800910934       18.9560131541  MEMB      35              0.0000000000
      3726        35  CHL1      H3'           -23.8624517087       -3.4435713787       19.1962634856  MEMB      35              0.0000000000
      3727        35  CHL1      C4            -26.0380586878       -4.5900690955       17.0859258278  MEMB      35              0.0000000000
      3728        35  CHL1      H4A           -25.6746965597       -5.6356552123       17.1268366507  MEMB      35              0.0000000000
      3729        35  CHL1      H4B           -26.9309956454       -4.5544285366       17.7476958145  MEMB      35              0.0000000000
      3730        35  CHL1      C5            -26.3669745451       -4.2041055694       15.6653977258  MEMB      35              0.0000000000
      3731        35  CHL1      C6            -27.6130617288       -3.8496624882       15.3302600403  MEMB      35              0.0000000000
      3732        35  CHL1      H6            -28.4234253867       -3.9112535105       16.0731767532  MEMB      35              0.0000000000
      3733        35  CHL1      C7            -27.9841075713       -3.4165212150       13.9525217317  MEMB      35              0.0000000000
      3734        35  CHL1      H7A           -28.9572292886       -3.8666403540       13.6550134610  MEMB      35              0.0000000000
      3735        35  CHL1      H7B           -28.0992354012       -2.3114939276       13.9322104819  MEMB      35              0.0000000000
      3736        35  CHL1      C8            -26.9109189445       -3.8326759936       12.9177248884  MEMB      35              0.0000000000
      3737        35  CHL1      H8            -27.0242820444       -4.9294577838       12.7768884479  MEMB      35              0.0000000000
      3738        35  CHL1      C14           -27.1290300883       -3.0875598562       11.6380464731  MEMB      35              0.0000000000
      3739        35  CHL1      H14           -26.8319002357       -2.0241478057       11.8204067246  MEMB      35              0.0000000000
      3740        35  CHL1      C15           -28.5734860524       -2.9823101298       11.1653325502  MEMB      35              0.0000000000
      3741        35  CHL1      H15A          -29.0119537764       -3.9942608360       11.2521339349  MEMB      35              0.0000000000
      3742        35  CHL1      H15B          -29.1793775415       -2.2712645015       11.7622061534  MEMB      35              0.0000000000
      3743        35  CHL1      C16           -28.4175933114       -2.5486166324        9.7179978047  MEMB      35              0.0000000000
      3744        35  CHL1      H16A          -29.1328237175       -3.1091613916        9.1068694308  MEMB      35              0.0000000000
      3745        35  CHL1      H16B          -28.6376642517       -1.4681579596        9.5937963965  MEMB      35              0.0000000000
      3746        35  CHL1      C17           -26.9311798115       -2.8253875199        9.3203989707  MEMB      35              0.0000000000
      3747        35  CHL1      H17           -26.4511251047       -1.8375102338        9.3859333878  MEMB      35              0.0000000000
      3748        35  CHL1      C13           -26.2648252122       -3.5780047481       10.4813105505  MEMB      35              0.0000000000
      3749        35  CHL1      C18           -26.4183433683       -5.0965943571       10.2552371682  MEMB      35              0.0000000000
      3750        35  CHL1      H18A          -25.8351827115       -5.4352691525        9.3763288630  MEMB      35              0.0000000000
      3751        35  CHL1      H18B          -26.0678405881       -5.6846160642       11.1250453917  MEMB      35              0.0000000000
      3752        35  CHL1      H18C          -27.4834480686       -5.3230104246       10.0933929678  MEMB      35              0.0000000000
      3753        35  CHL1      C12           -24.8111104213       -3.1998006404       10.8343327892  MEMB      35              0.0000000000
      3754        35  CHL1      H12A          -24.0948257425       -3.5600197301       10.0708282618  MEMB      35              0.0000000000
      3755        35  CHL1      H12B          -24.7209575457       -2.0942690379       10.8768016796  MEMB      35              0.0000000000
      3756        35  CHL1      C11           -24.4306306555       -3.7828239564       12.2127599321  MEMB      35              0.0000000000
      3757        35  CHL1      H11A          -24.2630182405       -4.8657391191       12.0508662382  MEMB      35              0.0000000000
      3758        35  CHL1      H11B          -23.4706548064       -3.3533422222       12.5454635987  MEMB      35              0.0000000000
      3759        35  CHL1      C9            -25.4852859055       -3.5190779724       13.3429028416  MEMB      35              0.0000000000
      3760        35  CHL1      H9            -25.4646489755       -2.4146852395       13.4889265976  MEMB      35              0.0000000000
      3761        35  CHL1      C10           -25.1530872221       -4.1392027739       14.7100903239  MEMB      35              0.0000000000
      3762        35  CHL1      C19           -24.6358425058       -5.5631401417       14.4486622947  MEMB      35              0.0000000000
      3763        35  CHL1      H19A          -24.6713452263       -6.1974548059       15.3506379780  MEMB      35              0.0000000000
      3764        35  CHL1      H19B          -25.2403803022       -6.0394148914       13.6522370406  MEMB      35              0.0000000000
      3765        35  CHL1      H19C          -23.5803055619       -5.5424612866       14.1020704064  MEMB      35              0.0000000000
      3766        35  CHL1      C1            -24.0113740566       -3.3190071676       15.3447350717  MEMB      35              0.0000000000
      3767        35  CHL1      H1A           -23.1070296069       -3.4916530307       14.7263108537  MEMB      35              0.0000000000
      3768        35  CHL1      H1B           -24.2654603499       -2.2369883058       15.3112369941  MEMB      35              0.0000000000
      3769        35  CHL1      C2            -23.7005297053       -3.6985933557       16.7873511960  MEMB      35              0.0000000000
      3770        35  CHL1      H2A           -22.9617458753       -2.9775192840       17.1867360610  MEMB      35              0.0000000000
      3771        35  CHL1      H2B           -23.2611025857       -4.7188795012       16.8145935550  MEMB      35              0.0000000000
      3772        35  CHL1      C20           -26.7761699319       -3.3325490138        7.8812726455  MEMB      35              0.0000000000
      3773        35  CHL1      H20           -27.1043405189       -4.3957977235        7.8201558535  MEMB      35              0.0000000000
      3774        35  CHL1      C21           -25.2941940982       -3.2482199763        7.4472242893  MEMB      35              0.0000000000
      3775        35  CHL1      H21A          -25.1660656651       -3.6166691880        6.4096547492  MEMB      35              0.0000000000
      3776        35  CHL1      H21B          -24.6558645630       -3.8771275882        8.0933574655  MEMB      35              0.0000000000
      3777        35  CHL1      H21C          -24.9332668426       -2.2024698162        7.4863849269  MEMB      35              0.0000000000
      3778        35  CHL1      C22           -27.6911334993       -2.5274166414        6.9249157512  MEMB      35              0.0000000000
      3779        35  CHL1      H22A          -28.7564842148       -2.7482025298        7.1130616796  MEMB      35              0.0000000000
      3780        35  CHL1      H22B          -27.5757722299       -1.4495153962        7.1114211820  MEMB      35              0.0000000000
      3781        35  CHL1      C23           -27.4618045718       -2.7196887694        5.4343131124  MEMB      35              0.0000000000
      3782        35  CHL1      H23A          -28.2798980253       -2.1675595573        4.9232050715  MEMB      35              0.0000000000
      3783        35  CHL1      H23B          -26.5105547316       -2.2367585930        5.1271828572  MEMB      35              0.0000000000
      3784        35  CHL1      C24           -27.5288916672       -4.1697805734        4.9642404086  MEMB      35              0.0000000000
      3785        35  CHL1      H24A          -26.6918580238       -4.7775705656        5.3647099210  MEMB      35              0.0000000000
      3786        35  CHL1      H24B          -28.4784848014       -4.6326566444        5.3154431133  MEMB      35              0.0000000000
      3787        35  CHL1      C25           -27.5031428847       -4.1690081644        3.4378575241  MEMB      35              0.0000000000
      3788        35  CHL1      H25           -28.2341260007       -3.3915175689        3.1360799866  MEMB      35              0.0000000000
      3789        35  CHL1      C26           -26.1371959207       -3.7378318209        2.8684229764  MEMB      35              0.0000000000
      3790        35  CHL1      H26A          -25.7830909944       -4.4652478088        2.1085245692  MEMB      35              0.0000000000
      3791        35  CHL1      H26B          -26.2311185268       -2.7406314380        2.3829088478  MEMB      35              0.0000000000
      3792        35  CHL1      H26C          -25.3751290050       -3.6623995772        3.6732344946  MEMB      35              0.0000000000
      3793        35  CHL1      C27           -28.0166151867       -5.4802289872        2.8527925671  MEMB      35              0.0000000000
      3794        35  CHL1      H27A          -27.4176447863       -6.3181180450        3.2198622807  MEMB      35              0.0000000000
      3795        35  CHL1      H27B          -29.0494610117       -5.7101301434        3.1786616005  MEMB      35              0.0000000000
      3796        35  CHL1      H27C          -27.9617760906       -5.4335088214        1.7446053093  MEMB      35              0.0000000000
      3797        36  SAPS      N               7.7165010555       25.6994280673       20.7432425924  MEMB      36              0.0000000000
      3798        36  SAPS      HN1             6.9811686534       26.3990675740       20.5303701292  MEMB      36              0.0000000000
      3799        36  SAPS      HN2             8.1102230927       25.9654103251       21.6819161916  MEMB      36              0.0000000000
      3800        36  SAPS      HN3             8.4181399246       25.6381241061       19.9883626748  MEMB      36              0.0000000000
      3801        36  SAPS      C12             7.0955115480       24.3826268648       21.0897855466  MEMB      36              0.0000000000
      3802        36  SAPS      H12A            7.8920635385       23.6588800849       21.1665676975  MEMB      36              0.0000000000
      3803        36  SAPS      C13             6.4973498375       24.5051570303       22.5301200660  MEMB      36              0.0000000000
      3804        36  SAPS      O13A            6.7858151456       25.5692899320       23.1648329945  MEMB      36              0.0000000000
      3805        36  SAPS      O13B            6.1671099778       23.4488740141       23.1266628478  MEMB      36              0.0000000000
      3806        36  SAPS      C11             6.1147333623       23.9172101180       19.9578452423  MEMB      36              0.0000000000
      3807        36  SAPS      H11A            6.4208757074       24.3951164007       18.9968623636  MEMB      36              0.0000000000
      3808        36  SAPS      H11B            5.0781271460       24.2483029473       20.1853141660  MEMB      36              0.0000000000
      3809        36  SAPS      P               5.6665309707       21.6901263787       18.5569218336  MEMB      36              0.0000000000
      3810        36  SAPS      O13             6.4392889643       20.4273185547       18.5022020338  MEMB      36              0.0000000000
      3811        36  SAPS      O14             4.1921883706       21.6299814917       18.5487872603  MEMB      36              0.0000000000
      3812        36  SAPS      O12             6.1629746503       22.4995889993       19.8254712137  MEMB      36              0.0000000000
      3813        36  SAPS      O11             6.1590922581       22.6338591566       17.4017323999  MEMB      36              0.0000000000
      3814        36  SAPS      C1              7.4568912722       22.5555795934       16.8274311544  MEMB      36              0.0000000000
      3815        36  SAPS      HA              8.2441619752       22.4003005962       17.6020063612  MEMB      36              0.0000000000
      3816        36  SAPS      HB              7.4971936455       21.7083519522       16.1031499789  MEMB      36              0.0000000000
      3817        36  SAPS      C2              7.7539355123       23.8656916852       16.0550325540  MEMB      36              0.0000000000
      3818        36  SAPS      HS              7.7986774492       24.6838628140       16.8084714611  MEMB      36              0.0000000000
      3819        36  SAPS      O21             6.6817956315       24.1147219009       15.1346186426  MEMB      36              0.0000000000
      3820        36  SAPS      C21             6.5891777855       25.3313251423       14.6508550840  MEMB      36              0.0000000000
      3821        36  SAPS      O22             7.3785012442       26.2476077533       14.8164369783  MEMB      36              0.0000000000
      3822        36  SAPS      C22             5.2126514284       25.4097155860       13.9928244351  MEMB      36              0.0000000000
      3823        36  SAPS      H2R             4.9710346227       24.4422634020       13.5085170723  MEMB      36              0.0000000000
      3824        36  SAPS      H2S             4.4977910384       25.5645805253       14.8296108480  MEMB      36              0.0000000000
      3825        36  SAPS      C3              9.1080997622       23.7940213357       15.3170545774  MEMB      36              0.0000000000
      3826        36  SAPS      HX              9.8883480800       23.4691697577       16.0404691113  MEMB      36              0.0000000000
      3827        36  SAPS      HY              9.3555000810       24.8290893880       14.9752693382  MEMB      36              0.0000000000
      3828        36  SAPS      O31             9.0194282887       22.8613556906       14.2153323575  MEMB      36              0.0000000000
      3829        36  SAPS      C31            10.0153215881       23.0376688752       13.3613903505  MEMB      36              0.0000000000
      3830        36  SAPS      O32            10.9860471622       23.7418765959       13.5642887485  MEMB      36              0.0000000000
      3831        36  SAPS      C32             9.7632951942       22.2755105403       12.0690433974  MEMB      36              0.0000000000
      3832        36  SAPS      H2X             8.7375790131       21.8570515940       12.0746784566  MEMB      36              0.0000000000
      3833        36  SAPS      H2Y            10.4940201835       21.4397804532       12.0401078893  MEMB      36              0.0000000000
      3834        36  SAPS      C23             5.0323130878       26.5670595443       12.9960435750  MEMB      36              0.0000000000
      3835        36  SAPS      H3R             5.4037107412       27.5113288708       13.4485768727  MEMB      36              0.0000000000
      3836        36  SAPS      H3S             3.9325045123       26.6813902405       12.8515476755  MEMB      36              0.0000000000
      3837        36  SAPS      C24             5.6744832047       26.2912850268       11.6273156934  MEMB      36              0.0000000000
      3838        36  SAPS      H4R             5.3606547942       25.2845182956       11.2750722423  MEMB      36              0.0000000000
      3839        36  SAPS      H4S             6.7816827528       26.2794606400       11.7448458604  MEMB      36              0.0000000000
      3840        36  SAPS      C25             5.2206561367       27.3307866227       10.6366396674  MEMB      36              0.0000000000
      3841        36  SAPS      H5R             4.1823419823       27.6613770190       10.7627215598  MEMB      36              0.0000000000
      3842        36  SAPS      C26             5.9041940481       27.7858202624        9.5755260762  MEMB      36              0.0000000000
      3843        36  SAPS      H6R             5.4376859474       28.5420664806        8.9243261903  MEMB      36              0.0000000000
      3844        36  SAPS      C27             7.2763811387       27.3496395468        9.1365811157  MEMB      36              0.0000000000
      3845        36  SAPS      H7R             7.9001045195       26.9534066550        9.9665096480  MEMB      36              0.0000000000
      3846        36  SAPS      H7S             7.8357503518       28.2141575625        8.7112351647  MEMB      36              0.0000000000
      3847        36  SAPS      C28             7.0241426403       26.2717835962        8.1186295798  MEMB      36              0.0000000000
      3848        36  SAPS      H8R             6.9827825235       25.2442488115        8.5154053359  MEMB      36              0.0000000000
      3849        36  SAPS      C29             6.8479969322       26.4825644009        6.8042395421  MEMB      36              0.0000000000
      3850        36  SAPS      H9R             6.6329946001       25.6199869807        6.1559177246  MEMB      36              0.0000000000
      3851        36  SAPS      C210            6.8792938579       27.8277636395        6.1136875740  MEMB      36              0.0000000000
      3852        36  SAPS      H10R            6.4640243405       28.6294061478        6.7655039216  MEMB      36              0.0000000000
      3853        36  SAPS      H10S            6.2168907170       27.8102785245        5.2185085805  MEMB      36              0.0000000000
      3854        36  SAPS      C211            8.2901706396       28.1905338679        5.7136781078  MEMB      36              0.0000000000
      3855        36  SAPS      H11R            8.7715230740       28.9636403397        6.3345927400  MEMB      36              0.0000000000
      3856        36  SAPS      C212            9.0043077653       27.5918644740        4.7403615406  MEMB      36              0.0000000000
      3857        36  SAPS      H12R           10.0346029832       27.9312334657        4.5461614541  MEMB      36              0.0000000000
      3858        36  SAPS      C213            8.5152848616       26.4511335313        3.8783067564  MEMB      36              0.0000000000
      3859        36  SAPS      H13R            7.5745096225       26.0144480290        4.2691622687  MEMB      36              0.0000000000
      3860        36  SAPS      H13S            9.2609914794       25.6283220824        3.9152714352  MEMB      36              0.0000000000
      3861        36  SAPS      C214            8.3293734990       26.8702262195        2.4502230529  MEMB      36              0.0000000000
      3862        36  SAPS      H14R            9.0302853648       27.6456747267        2.1188316436  MEMB      36              0.0000000000
      3863        36  SAPS      C215            7.3330508529       26.5148741249        1.6215639825  MEMB      36              0.0000000000
      3864        36  SAPS      H15R            7.3235080934       26.9379048756        0.6046595019  MEMB      36              0.0000000000
      3865        36  SAPS      C216            6.1586687464       25.6143402503        1.9306367390  MEMB      36              0.0000000000
      3866        36  SAPS      H16R            6.2402290326       25.1008501854        2.9107123406  MEMB      36              0.0000000000
      3867        36  SAPS      H16S            6.0396295860       24.8408654833        1.1417859235  MEMB      36              0.0000000000
      3868        36  SAPS      C217            4.9489515789       26.5545722256        1.9199737925  MEMB      36              0.0000000000
      3869        36  SAPS      H17R            4.8704448454       26.9122564348        0.8648166109  MEMB      36              0.0000000000
      3870        36  SAPS      H17S            5.1435034576       27.4301234346        2.5870525342  MEMB      36              0.0000000000
      3871        36  SAPS      C218            3.5775301099       26.0019918338        2.3383507804  MEMB      36              0.0000000000
      3872        36  SAPS      H18R            3.6344187982       25.5362689255        3.3482126316  MEMB      36              0.0000000000
      3873        36  SAPS      H18S            3.2514339173       25.2237098403        1.6115518919  MEMB      36              0.0000000000
      3874        36  SAPS      C219            2.5411213500       27.1445211747        2.3621794968  MEMB      36              0.0000000000
      3875        36  SAPS      H19R            2.6856160020       27.7466063134        3.2893784484  MEMB      36              0.0000000000
      3876        36  SAPS      H19S            1.5119993701       26.7230949341        2.4036525745  MEMB      36              0.0000000000
      3877        36  SAPS      C220            2.6604367387       28.0896863532        1.1594812850  MEMB      36              0.0000000000
      3878        36  SAPS      H20R            1.9368413637       28.9250083569        1.2125083592  MEMB      36              0.0000000000
      3879        36  SAPS      H20S            2.5105371716       27.5284844478        0.2138442659  MEMB      36              0.0000000000
      3880        36  SAPS      H20T            3.6695773602       28.5510281027        1.1161298102  MEMB      36              0.0000000000
      3881        36  SAPS      C33             9.9811400526       23.1820694784       10.8346981718  MEMB      36              0.0000000000
      3882        36  SAPS      H3X            10.9548668431       23.7209601276       10.9284565933  MEMB      36              0.0000000000
      3883        36  SAPS      H3Y             9.1784479122       23.9525172102       10.7680658014  MEMB      36              0.0000000000
      3884        36  SAPS      C34            10.0206437105       22.3737725211        9.5336122271  MEMB      36              0.0000000000
      3885        36  SAPS      H4X            10.7472935071       21.5371302948        9.6342524422  MEMB      36              0.0000000000
      3886        36  SAPS      H4Y            10.3827230085       23.0374649661        8.7144149872  MEMB      36              0.0000000000
      3887        36  SAPS      C35             8.6486318430       21.8241366666        9.1295581120  MEMB      36              0.0000000000
      3888        36  SAPS      H5X             7.9433374728       22.6827933554        9.0560138119  MEMB      36              0.0000000000
      3889        36  SAPS      H5Y             8.2562035820       21.1252208549        9.9011606233  MEMB      36              0.0000000000
      3890        36  SAPS      C36             8.7052322766       21.0995800470        7.7826594960  MEMB      36              0.0000000000
      3891        36  SAPS      H6X             9.0844456795       20.0673852559        7.9342949915  MEMB      36              0.0000000000
      3892        36  SAPS      H6Y             9.4461124876       21.6062549023        7.1281283122  MEMB      36              0.0000000000
      3893        36  SAPS      C37             7.3448446935       21.0292592977        7.0793453057  MEMB      36              0.0000000000
      3894        36  SAPS      H7X             6.5723892101       20.6839140448        7.8004078428  MEMB      36              0.0000000000
      3895        36  SAPS      H7Y             7.4156864947       20.2510192562        6.2876640260  MEMB      36              0.0000000000
      3896        36  SAPS      C38             6.8983606105       22.3597496712        6.4457376193  MEMB      36              0.0000000000
      3897        36  SAPS      H8X             6.6615924326       23.0956582370        7.2458210535  MEMB      36              0.0000000000
      3898        36  SAPS      H8Y             5.9555589128       22.1794800078        5.8806420064  MEMB      36              0.0000000000
      3899        36  SAPS      C39             7.9321533542       22.9982891041        5.4971386760  MEMB      36              0.0000000000
      3900        36  SAPS      H9X             8.7648866752       23.4321566953        6.0941918417  MEMB      36              0.0000000000
      3901        36  SAPS      H9Y             7.4460832718       23.8478143329        4.9695976473  MEMB      36              0.0000000000
      3902        36  SAPS      C310            8.5164247615       22.0304339595        4.4541818397  MEMB      36              0.0000000000
      3903        36  SAPS      H10X            9.1714954947       21.2852454891        4.9567390260  MEMB      36              0.0000000000
      3904        36  SAPS      H10Y            9.1621695555       22.6085206585        3.7567699362  MEMB      36              0.0000000000
      3905        36  SAPS      C311            7.4507233289       21.2782381576        3.6481748746  MEMB      36              0.0000000000
      3906        36  SAPS      H11X            6.8166560509       20.6547932798        4.3131702341  MEMB      36              0.0000000000
      3907        36  SAPS      H11Y            7.9623228603       20.5844134583        2.9430085842  MEMB      36              0.0000000000
      3908        36  SAPS      C312            6.5436553810       22.2124171831        2.8489970514  MEMB      36              0.0000000000
      3909        36  SAPS      H12X            7.1989375393       22.7940736158        2.1599483361  MEMB      36              0.0000000000
      3910        36  SAPS      H12Y            6.0214417838       22.9392204356        3.5076096961  MEMB      36              0.0000000000
      3911        36  SAPS      C313            5.5129971223       21.4257698801        2.0426791947  MEMB      36              0.0000000000
      3912        36  SAPS      H13X            4.6039408050       21.2137291130        2.6470125749  MEMB      36              0.0000000000
      3913        36  SAPS      H13Y            5.9769509617       20.4440804253        1.7864079750  MEMB      36              0.0000000000
      3914        36  SAPS      C314            5.1591201162       22.1417829972        0.7393365377  MEMB      36              0.0000000000
      3915        36  SAPS      H14X            6.0817967279       22.6446467627        0.3646879459  MEMB      36              0.0000000000
      3916        36  SAPS      H14Y            4.3924976501       22.9272369145        0.9102636179  MEMB      36              0.0000000000
      3917        36  SAPS      C315            4.7214914878       21.1616424088       -0.3419430591  MEMB      36              0.0000000000
      3918        36  SAPS      H15X            3.7029414618       20.7676989783       -0.1497837305  MEMB      36              0.0000000000
      3919        36  SAPS      H15Y            5.4102433366       20.2850831097       -0.2889712318  MEMB      36              0.0000000000
      3920        36  SAPS      C316            4.8635161248       21.7349896386       -1.7560188566  MEMB      36              0.0000000000
      3921        36  SAPS      H16X            4.7293615197       20.8622841281       -2.4383228584  MEMB      36              0.0000000000
      3922        36  SAPS      H16Y            5.8801781757       22.1774404707       -1.8682841026  MEMB      36              0.0000000000
      3923        36  SAPS      C317            3.8839316810       22.7943773913       -2.2186216181  MEMB      36              0.0000000000
      3924        36  SAPS      H17X            3.8991755789       22.8067773488       -3.3354831500  MEMB      36              0.0000000000
      3925        36  SAPS      H17Y            4.2158538310       23.7951710307       -1.8606655290  MEMB      36              0.0000000000
      3926        36  SAPS      C318            2.4879538632       22.4984806977       -1.7252882900  MEMB      36              0.0000000000
      3927        36  SAPS      H18X            1.7477438953       23.2042175200       -2.1410470152  MEMB      36              0.0000000000
      3928        36  SAPS      H18Y            2.4735532203       22.5917169403       -0.6204817977  MEMB      36              0.0000000000
      3929        36  SAPS      H18Z            2.1957170680       21.4593539528       -1.9879319515  MEMB      36              0.0000000000
      3930        37  SAPE      N               3.1698689371      -24.8108396571       18.4680413016  MEMB      37              0.0000000000
      3931        37  SAPE      HN1             3.6023478062      -24.4870861530       17.5809319781  MEMB      37              0.0000000000
      3932        37  SAPE      HN2             2.1190853695      -24.8520140064       18.4260488809  MEMB      37              0.0000000000
      3933        37  SAPE      HN3             3.4855735114      -24.1860129067       19.2465149233  MEMB      37              0.0000000000
      3934        37  SAPE      C12             3.6854615911      -26.1686600595       18.8557421846  MEMB      37              0.0000000000
      3935        37  SAPE      H12A            4.5908278096      -26.3561883176       18.2553586440  MEMB      37              0.0000000000
      3936        37  SAPE      H12B            2.9591779476      -26.9529319618       18.5884172621  MEMB      37              0.0000000000
      3937        37  SAPE      C11             3.9579630051      -26.1594547993       20.3661328285  MEMB      37              0.0000000000
      3938        37  SAPE      H11A            4.5843412783      -27.0403242802       20.6500526681  MEMB      37              0.0000000000
      3939        37  SAPE      H11B            2.9928760969      -26.2789205496       20.9109812941  MEMB      37              0.0000000000
      3940        37  SAPE      P               6.1164517690      -24.7492762012       20.7305552281  MEMB      37              0.0000000000
      3941        37  SAPE      O13             6.4211492677      -23.3167403022       20.9464912972  MEMB      37              0.0000000000
      3942        37  SAPE      O14             6.6608967307      -25.7711227677       21.6536245939  MEMB      37              0.0000000000
      3943        37  SAPE      O12             4.5415777613      -24.9127271756       20.7634526742  MEMB      37              0.0000000000
      3944        37  SAPE      O11             6.3135123054      -25.1462711941       19.2260429309  MEMB      37              0.0000000000
      3945        37  SAPE      C1              7.0694551522      -26.3008871708       18.8574744940  MEMB      37              0.0000000000
      3946        37  SAPE      HA              6.9376033247      -27.1733159705       19.5402147506  MEMB      37              0.0000000000
      3947        37  SAPE      HB              6.6672931491      -26.6118610919       17.8754819581  MEMB      37              0.0000000000
      3948        37  SAPE      C2              8.5818755935      -25.9894186322       18.6852350595  MEMB      37              0.0000000000
      3949        37  SAPE      HS              9.0799496158      -26.2254929387       19.6539222429  MEMB      37              0.0000000000
      3950        37  SAPE      O21             8.6932067430      -24.5985466816       18.3539923020  MEMB      37              0.0000000000
      3951        37  SAPE      C21             9.5381271020      -23.8929951412       19.0563202242  MEMB      37              0.0000000000
      3952        37  SAPE      O22            10.4604673884      -24.3183681917       19.7372670721  MEMB      37              0.0000000000
      3953        37  SAPE      C22             9.3093883359      -22.4274121864       18.8058213079  MEMB      37              0.0000000000
      3954        37  SAPE      H2R             8.2595762936      -22.2266418391       18.5163911366  MEMB      37              0.0000000000
      3955        37  SAPE      H2S             9.4901406056      -21.9240014933       19.7822421215  MEMB      37              0.0000000000
      3956        37  SAPE      C3              9.1705182676      -26.8565035881       17.5476011095  MEMB      37              0.0000000000
      3957        37  SAPE      HX              9.1948483264      -27.9240766381       17.8513491239  MEMB      37              0.0000000000
      3958        37  SAPE      HY             10.2161526767      -26.5359285978       17.3414492357  MEMB      37              0.0000000000
      3959        37  SAPE      O31             8.3024672829      -26.7205406043       16.4120829845  MEMB      37              0.0000000000
      3960        37  SAPE      C31             8.7412374133      -27.1601275404       15.2772810580  MEMB      37              0.0000000000
      3961        37  SAPE      O32             9.8533657478      -27.6169267457       15.0631284884  MEMB      37              0.0000000000
      3962        37  SAPE      C32             7.6250552604      -27.0178914560       14.2385849192  MEMB      37              0.0000000000
      3963        37  SAPE      H2X             7.9420892148      -27.5728433792       13.3560968574  MEMB      37              0.0000000000
      3964        37  SAPE      H2Y             7.6295348014      -25.9854578390       13.8807062009  MEMB      37              0.0000000000
      3965        37  SAPE      C23            10.3377652389      -21.9467348949       17.7809482335  MEMB      37              0.0000000000
      3966        37  SAPE      H3R            11.3396004933      -22.3493328736       18.0184856747  MEMB      37              0.0000000000
      3967        37  SAPE      H3S            10.3824501746      -20.8308954072       17.8673558526  MEMB      37              0.0000000000
      3968        37  SAPE      C24            10.0164921615      -22.2422529805       16.3026697241  MEMB      37              0.0000000000
      3969        37  SAPE      H4R            10.7812734100      -21.6369083975       15.7655103270  MEMB      37              0.0000000000
      3970        37  SAPE      H4S             9.0304722685      -21.7779084197       16.1022492425  MEMB      37              0.0000000000
      3971        37  SAPE      C25            10.1179249999      -23.5852953915       15.6281666067  MEMB      37              0.0000000000
      3972        37  SAPE      H5R            10.7951087557      -24.3269033012       16.0825841515  MEMB      37              0.0000000000
      3973        37  SAPE      C26             9.2539559586      -24.0692512011       14.7290284658  MEMB      37              0.0000000000
      3974        37  SAPE      H6R             9.5658107646      -24.9683121792       14.1773945334  MEMB      37              0.0000000000
      3975        37  SAPE      C27             7.9994251723      -23.4098606306       14.2128431493  MEMB      37              0.0000000000
      3976        37  SAPE      H7R             7.6623858786      -22.6257964497       14.9232048286  MEMB      37              0.0000000000
      3977        37  SAPE      H7S             7.2038239634      -24.1556839172       14.3280867802  MEMB      37              0.0000000000
      3978        37  SAPE      C28             7.8176360283      -22.8853213110       12.8186511133  MEMB      37              0.0000000000
      3979        37  SAPE      H8R             7.3095960671      -21.9114695789       12.8178657518  MEMB      37              0.0000000000
      3980        37  SAPE      C29             7.9714719237      -23.4971947813       11.6292582975  MEMB      37              0.0000000000
      3981        37  SAPE      H9R             7.6860412785      -22.9274628882       10.7328422510  MEMB      37              0.0000000000
      3982        37  SAPE      C210            8.3817979389      -24.9153013734       11.3245349129  MEMB      37              0.0000000000
      3983        37  SAPE      H10R            8.9303011637      -25.3780645474       12.1706558297  MEMB      37              0.0000000000
      3984        37  SAPE      H10S            9.0890453132      -24.9241246177       10.4672890578  MEMB      37              0.0000000000
      3985        37  SAPE      C211            7.1447030993      -25.7217671296       11.0101435544  MEMB      37              0.0000000000
      3986        37  SAPE      H11R            6.9172010585      -26.5075381548       11.7405794562  MEMB      37              0.0000000000
      3987        37  SAPE      C212            6.4019739113      -25.6860690505        9.8851390250  MEMB      37              0.0000000000
      3988        37  SAPE      H12R            5.4821171530      -26.2838519936        9.8445293797  MEMB      37              0.0000000000
      3989        37  SAPE      C213            6.6238845324      -24.8426085307        8.6570388967  MEMB      37              0.0000000000
      3990        37  SAPE      H13R            6.6270767723      -23.7611689969        8.8803602615  MEMB      37              0.0000000000
      3991        37  SAPE      H13S            5.7962833714      -25.0407159260        7.9451450067  MEMB      37              0.0000000000
      3992        37  SAPE      C214            7.9289596855      -25.1712071209        8.0139933790  MEMB      37              0.0000000000
      3993        37  SAPE      H14R            8.7223249084      -24.4152986736        8.1216415892  MEMB      37              0.0000000000
      3994        37  SAPE      C215            8.1588998719      -26.2798994082        7.3112921935  MEMB      37              0.0000000000
      3995        37  SAPE      H15R            9.1812370665      -26.5071150322        7.0238830085  MEMB      37              0.0000000000
      3996        37  SAPE      C216            7.2305134455      -27.3947720637        7.0022695448  MEMB      37              0.0000000000
      3997        37  SAPE      H16R            6.3656006723      -27.0278234291        6.4131428137  MEMB      37              0.0000000000
      3998        37  SAPE      H16S            6.8269540378      -27.8154127419        7.9489180109  MEMB      37              0.0000000000
      3999        37  SAPE      C217            7.9614336350      -28.5362424854        6.2644383742  MEMB      37              0.0000000000
      4000        37  SAPE      H17R            7.1441053926      -29.1650312639        5.9238402606  MEMB      37              0.0000000000
      4001        37  SAPE      H17S            8.5959347814      -29.1218996519        6.9635082050  MEMB      37              0.0000000000
      4002        37  SAPE      C218            8.6492394841      -28.3558809584        4.9031143056  MEMB      37              0.0000000000
      4003        37  SAPE      H18R            9.0947067713      -29.3358901200        4.6339306941  MEMB      37              0.0000000000
      4004        37  SAPE      H18S            9.4880551316      -27.6705300414        4.9272234746  MEMB      37              0.0000000000
      4005        37  SAPE      C219            7.6849377420      -27.9594937010        3.7869499481  MEMB      37              0.0000000000
      4006        37  SAPE      H19R            7.1149020349      -27.0691898118        4.1141681379  MEMB      37              0.0000000000
      4007        37  SAPE      H19S            6.9621762875      -28.7922019516        3.7161388694  MEMB      37              0.0000000000
      4008        37  SAPE      C220            8.3551077654      -27.7616733835        2.4247234470  MEMB      37              0.0000000000
      4009        37  SAPE      H20R            8.3679243573      -26.7545654770        2.0037021530  MEMB      37              0.0000000000
      4010        37  SAPE      H20S            7.9213928404      -28.4347270101        1.6539828809  MEMB      37              0.0000000000
      4011        37  SAPE      H20T            9.4381942706      -27.9167511080        2.5453222485  MEMB      37              0.0000000000
      4012        37  SAPE      C33             6.1865021019      -27.3546762491       14.7262712713  MEMB      37              0.0000000000
      4013        37  SAPE      H3X             6.0817164042      -27.1795939480       15.8169850787  MEMB      37              0.0000000000
      4014        37  SAPE      H3Y             6.0116071799      -28.4365427154       14.5638611350  MEMB      37              0.0000000000
      4015        37  SAPE      C34             5.0919407754      -26.5212348948       14.0170816742  MEMB      37              0.0000000000
      4016        37  SAPE      H4X             4.1895933514      -27.1525190021       13.8693996290  MEMB      37              0.0000000000
      4017        37  SAPE      H4Y             5.4676661665      -26.2454097294       13.0170723679  MEMB      37              0.0000000000
      4018        37  SAPE      C35             4.7083868539      -25.2373946811       14.7794468467  MEMB      37              0.0000000000
      4019        37  SAPE      H5X             5.6287031503      -24.8377351110       15.2523737509  MEMB      37              0.0000000000
      4020        37  SAPE      H5Y             4.0564158967      -25.5252001459       15.6301554789  MEMB      37              0.0000000000
      4021        37  SAPE      C36             4.0266298917      -24.0736073870       14.0047322854  MEMB      37              0.0000000000
      4022        37  SAPE      H6X             4.4084615990      -23.1187528701       14.4360140123  MEMB      37              0.0000000000
      4023        37  SAPE      H6Y             2.9380137711      -24.1058427994       14.2206678394  MEMB      37              0.0000000000
      4024        37  SAPE      C37             4.1764236712      -23.9710423445       12.4670721927  MEMB      37              0.0000000000
      4025        37  SAPE      H7X             4.0046063564      -24.9577107222       11.9914398920  MEMB      37              0.0000000000
      4026        37  SAPE      H7Y             5.2119685019      -23.6719797401       12.2104658210  MEMB      37              0.0000000000
      4027        37  SAPE      C38             3.1751168572      -22.9611234464       11.8495463367  MEMB      37              0.0000000000
      4028        37  SAPE      H8X             3.4626436236      -21.9362585741       12.1720603004  MEMB      37              0.0000000000
      4029        37  SAPE      H8Y             2.1628977836      -23.1608038272       12.2586676094  MEMB      37              0.0000000000
      4030        37  SAPE      C39             3.0645629569      -22.9817979178       10.3073502595  MEMB      37              0.0000000000
      4031        37  SAPE      H9X             2.1748772710      -22.3918126688        9.9936354908  MEMB      37              0.0000000000
      4032        37  SAPE      H9Y             2.9206829623      -24.0251156519        9.9499076728  MEMB      37              0.0000000000
      4033        37  SAPE      C310            4.3180698404      -22.3719180065        9.6771012183  MEMB      37              0.0000000000
      4034        37  SAPE      H10X            5.1351176016      -23.0774596441        9.9045251890  MEMB      37              0.0000000000
      4035        37  SAPE      H10Y            4.5588816612      -21.4410978875       10.2399314902  MEMB      37              0.0000000000
      4036        37  SAPE      C311            4.2944236110      -21.9937145026        8.1761195804  MEMB      37              0.0000000000
      4037        37  SAPE      H11X            5.3312244376      -21.6867487813        7.9103597025  MEMB      37              0.0000000000
      4038        37  SAPE      H11Y            3.6481870361      -21.1007587657        8.0479169695  MEMB      37              0.0000000000
      4039        37  SAPE      C312            3.8196234537      -23.0456246195        7.1551511654  MEMB      37              0.0000000000
      4040        37  SAPE      H12X            2.7103366853      -22.9857549325        7.0907701815  MEMB      37              0.0000000000
      4041        37  SAPE      H12Y            4.0633280487      -24.0658941274        7.5099435749  MEMB      37              0.0000000000
      4042        37  SAPE      C313            4.4049577795      -22.8500013197        5.7338489146  MEMB      37              0.0000000000
      4043        37  SAPE      H13X            3.8230066196      -23.4854059359        5.0266235815  MEMB      37              0.0000000000
      4044        37  SAPE      H13Y            5.4584162673      -23.2130399898        5.7095407547  MEMB      37              0.0000000000
      4045        37  SAPE      C314            4.3866115554      -21.3870081070        5.2429593594  MEMB      37              0.0000000000
      4046        37  SAPE      H14X            5.1913147789      -20.8264163218        5.7683445580  MEMB      37              0.0000000000
      4047        37  SAPE      H14Y            3.4043283706      -20.9593662515        5.5505529760  MEMB      37              0.0000000000
      4048        37  SAPE      C315            4.5540928568      -21.1493504831        3.7254588961  MEMB      37              0.0000000000
      4049        37  SAPE      H15X            4.1738157433      -20.1594800016        3.4609009582  MEMB      37              0.0000000000
      4050        37  SAPE      H15Y            3.9258795080      -21.8427411091        3.1391626316  MEMB      37              0.0000000000
      4051        37  SAPE      C316            6.0046467149      -21.1438833792        3.2227939347  MEMB      37              0.0000000000
      4052        37  SAPE      H16X            6.4975110507      -22.0582501947        3.6018870699  MEMB      37              0.0000000000
      4053        37  SAPE      H16Y            6.5638070616      -20.2849217245        3.6510257498  MEMB      37              0.0000000000
      4054        37  SAPE      C317            6.0994817587      -21.1352785246        1.6873256245  MEMB      37              0.0000000000
      4055        37  SAPE      H17X            5.8579135618      -20.1236801378        1.2890512392  MEMB      37              0.0000000000
      4056        37  SAPE      H17Y            5.3281265586      -21.8387669375        1.2936244426  MEMB      37              0.0000000000
      4057        37  SAPE      C318            7.4768207324      -21.5618335420        1.1746024159  MEMB      37              0.0000000000
      4058        37  SAPE      H18X            8.2051153206      -20.7297347886        1.2357764860  MEMB      37              0.0000000000
      4059        37  SAPE      H18Y            7.4174007776      -21.9351926565        0.1281120215  MEMB      37              0.0000000000
      4060        37  SAPE      H18Z            7.8944284735      -22.3579147053        1.8178859765  MEMB      37              0.0000000000
      4061        38  CHL1      C3            -16.6742770681       19.9972486065       17.6277919956  MEMB      38              0.0000000000
      4062        38  CHL1      H3            -17.7447783393       19.6954789130       17.5922260018  MEMB      38              0.0000000000
      4063        38  CHL1      O3            -16.3871988495       20.3937198456       18.9543029974  MEMB      38              0.0000000000
      4064        38  CHL1      H3'           -16.6555942228       21.3254837681       18.9570232070  MEMB      38              0.0000000000
      4065        38  CHL1      C4            -15.7843222100       18.8136659897       17.1866203081  MEMB      38              0.0000000000
      4066        38  CHL1      H4A           -14.7272985599       19.0871617248       17.3876366260  MEMB      38              0.0000000000
      4067        38  CHL1      H4B           -16.0131323464       17.9586153106       17.8617419411  MEMB      38              0.0000000000
      4068        38  CHL1      C5            -15.9799234601       18.4667918243       15.7107562866  MEMB      38              0.0000000000
      4069        38  CHL1      C6            -16.3633401546       17.2537938220       15.2834452975  MEMB      38              0.0000000000
      4070        38  CHL1      H6            -16.5179434426       16.4578516464       16.0274686169  MEMB      38              0.0000000000
      4071        38  CHL1      C7            -16.5784116023       16.8968943358       13.8328360777  MEMB      38              0.0000000000
      4072        38  CHL1      H7A           -16.1560796322       15.8951596779       13.6162839512  MEMB      38              0.0000000000
      4073        38  CHL1      H7B           -17.6656998679       16.8397158881       13.6210501546  MEMB      38              0.0000000000
      4074        38  CHL1      C8            -15.9501106189       17.9238718472       12.8473488801  MEMB      38              0.0000000000
      4075        38  CHL1      H8            -14.8505817854       17.7754968103       12.8799048146  MEMB      38              0.0000000000
      4076        38  CHL1      C14           -16.4639064255       17.7375067815       11.4201474071  MEMB      38              0.0000000000
      4077        38  CHL1      H14           -17.5507771465       17.9808603135       11.4445326701  MEMB      38              0.0000000000
      4078        38  CHL1      C15           -16.4020865155       16.3402913045       10.8051565191  MEMB      38              0.0000000000
      4079        38  CHL1      H15A          -15.4094836338       15.9032995494       11.0276224749  MEMB      38              0.0000000000
      4080        38  CHL1      H15B          -17.2066303556       15.6814644913       11.1878840866  MEMB      38              0.0000000000
      4081        38  CHL1      C16           -16.4946242287       16.5594344441        9.2947408997  MEMB      38              0.0000000000
      4082        38  CHL1      H16A          -15.6437429718       16.0188115712        8.8265195226  MEMB      38              0.0000000000
      4083        38  CHL1      H16B          -17.4469017664       16.1671383100        8.8817086580  MEMB      38              0.0000000000
      4084        38  CHL1      C17           -16.3895088347       18.0964948457        9.0528287399  MEMB      38              0.0000000000
      4085        38  CHL1      H17           -17.4365723548       18.4644120099        8.9399204285  MEMB      38              0.0000000000
      4086        38  CHL1      C13           -15.8505976915       18.6785749191       10.3885928663  MEMB      38              0.0000000000
      4087        38  CHL1      C18           -14.3099095087       18.5287489718       10.3946769290  MEMB      38              0.0000000000
      4088        38  CHL1      H18A          -13.8521994475       19.1951256189        9.6365209800  MEMB      38              0.0000000000
      4089        38  CHL1      H18B          -13.8603296586       18.8065410419       11.3631320150  MEMB      38              0.0000000000
      4090        38  CHL1      H18C          -14.0163600657       17.4812083895       10.1784982123  MEMB      38              0.0000000000
      4091        38  CHL1      C12           -16.2893976949       20.0991798943       10.7886847282  MEMB      38              0.0000000000
      4092        38  CHL1      H12A          -15.8773832659       20.8625805401       10.1035851889  MEMB      38              0.0000000000
      4093        38  CHL1      H12B          -17.3988424228       20.1609963854       10.7463781801  MEMB      38              0.0000000000
      4094        38  CHL1      C11           -15.8295083226       20.4209097709       12.2259985581  MEMB      38              0.0000000000
      4095        38  CHL1      H11A          -14.7250218194       20.5158120180       12.2043427759  MEMB      38              0.0000000000
      4096        38  CHL1      H11B          -16.2352690820       21.4124555096       12.5060186066  MEMB      38              0.0000000000
      4097        38  CHL1      C9            -16.2644408720       19.3521374778       13.2800127880  MEMB      38              0.0000000000
      4098        38  CHL1      H9            -17.3821734198       19.3978445663       13.2930239542  MEMB      38              0.0000000000
      4099        38  CHL1      C10           -15.8205788073       19.6477986726       14.7364127056  MEMB      38              0.0000000000
      4100        38  CHL1      C19           -14.3144308881       20.0411090597       14.7425094696  MEMB      38              0.0000000000
      4101        38  CHL1      H19A          -14.1346428542       20.9695565537       14.1668791796  MEMB      38              0.0000000000
      4102        38  CHL1      H19B          -13.9452244258       20.2360629078       15.7692224298  MEMB      38              0.0000000000
      4103        38  CHL1      H19C          -13.6964995780       19.2251898373       14.3115856322  MEMB      38              0.0000000000
      4104        38  CHL1      C1            -16.7518163660       20.7681015032       15.2669320452  MEMB      38              0.0000000000
      4105        38  CHL1      H1A           -16.7136635488       21.6290300114       14.5796778838  MEMB      38              0.0000000000
      4106        38  CHL1      H1B           -17.8059413437       20.4015099895       15.2409038327  MEMB      38              0.0000000000
      4107        38  CHL1      C2            -16.4509010490       21.1970682171       16.7038028295  MEMB      38              0.0000000000
      4108        38  CHL1      H2A           -17.1062635532       22.0492702298       16.9791155350  MEMB      38              0.0000000000
      4109        38  CHL1      H2B           -15.3974308575       21.5418129104       16.7829619980  MEMB      38              0.0000000000
      4110        38  CHL1      C20           -15.6240933327       18.4394493098        7.7613290016  MEMB      38              0.0000000000
      4111        38  CHL1      H20           -14.5444223749       18.2286767953        7.9175359681  MEMB      38              0.0000000000
      4112        38  CHL1      C21           -15.7745765906       19.9429126304        7.4415222716  MEMB      38              0.0000000000
      4113        38  CHL1      H21A          -16.8453097950       20.2326296664        7.4181705789  MEMB      38              0.0000000000
      4114        38  CHL1      H21B          -15.3222770642       20.1837202032        6.4589230765  MEMB      38              0.0000000000
      4115        38  CHL1      H21C          -15.2444656796       20.5570920428        8.1943626599  MEMB      38              0.0000000000
      4116        38  CHL1      C22           -15.9885467373       17.5669305332        6.5308110517  MEMB      38              0.0000000000
      4117        38  CHL1      H22A          -15.9183546141       16.4888849514        6.7845321758  MEMB      38              0.0000000000
      4118        38  CHL1      H22B          -17.0359540306       17.7764024399        6.2254445543  MEMB      38              0.0000000000
      4119        38  CHL1      C23           -15.0304650794       17.8100236404        5.3435011284  MEMB      38              0.0000000000
      4120        38  CHL1      H23A          -15.4397642005       18.6808980539        4.7879370489  MEMB      38              0.0000000000
      4121        38  CHL1      H23B          -14.0233003079       18.0842586248        5.7268889970  MEMB      38              0.0000000000
      4122        38  CHL1      C24           -14.8590019770       16.5934244405        4.4146632906  MEMB      38              0.0000000000
      4123        38  CHL1      H24A          -14.2896992850       15.8038780394        4.9559438692  MEMB      38              0.0000000000
      4124        38  CHL1      H24B          -15.8585169012       16.1639444849        4.2452356460  MEMB      38              0.0000000000
      4125        38  CHL1      C25           -14.1305168437       16.8634754763        3.0644278629  MEMB      38              0.0000000000
      4126        38  CHL1      H25           -13.0447956134       16.6829045164        3.2551209728  MEMB      38              0.0000000000
      4127        38  CHL1      C26           -14.5722398259       15.9088504085        1.9410164645  MEMB      38              0.0000000000
      4128        38  CHL1      H26A          -15.3594041655       16.3835253571        1.3223382847  MEMB      38              0.0000000000
      4129        38  CHL1      H26B          -13.7287551009       15.6930382974        1.2564507871  MEMB      38              0.0000000000
      4130        38  CHL1      H26C          -14.9761853711       14.9575817757        2.3441169145  MEMB      38              0.0000000000
      4131        38  CHL1      C27           -14.2788314545       18.2970326576        2.5282431773  MEMB      38              0.0000000000
      4132        38  CHL1      H27A          -15.3533492624       18.5424758485        2.3871310192  MEMB      38              0.0000000000
      4133        38  CHL1      H27B          -13.8262574839       19.0354576611        3.2220052206  MEMB      38              0.0000000000
      4134        38  CHL1      H27C          -13.7676836033       18.3802353769        1.5447648699  MEMB      38              0.0000000000
      4135        39  SAPS      N              -4.0608194764      -28.9191054531       20.4360062386  MEMB      39              0.0000000000
      4136        39  SAPS      HN1            -4.7142400374      -29.6689750068       20.7556575015  MEMB      39              0.0000000000
      4137        39  SAPS      HN2            -3.7758544729      -29.0773894533       19.4513335792  MEMB      39              0.0000000000
      4138        39  SAPS      HN3            -3.2063037524      -29.0464336992       21.0191814934  MEMB      39              0.0000000000
      4139        39  SAPS      C12            -4.6131126799      -27.5371049717       20.6478956059  MEMB      39              0.0000000000
      4140        39  SAPS      H12A           -5.3315561875      -27.3147536886       19.8733107142  MEMB      39              0.0000000000
      4141        39  SAPS      C13            -5.3505498600      -27.3337201156       21.9711422340  MEMB      39              0.0000000000
      4142        39  SAPS      O13A           -5.3113710827      -28.2385729386       22.8470688381  MEMB      39              0.0000000000
      4143        39  SAPS      O13B           -6.0702854309      -26.3019717234       22.0872777475  MEMB      39              0.0000000000
      4144        39  SAPS      C11            -3.4584975607      -26.5060236974       20.6327987850  MEMB      39              0.0000000000
      4145        39  SAPS      H11A           -2.5350149079      -27.0136275956       21.0093690742  MEMB      39              0.0000000000
      4146        39  SAPS      H11B           -3.6225438448      -25.6740938734       21.3401584208  MEMB      39              0.0000000000
      4147        39  SAPS      P              -1.8833628693      -25.6328478075       18.8122276709  MEMB      39              0.0000000000
      4148        39  SAPS      O13            -1.9028436386      -24.5912934488       17.7643236117  MEMB      39              0.0000000000
      4149        39  SAPS      O14            -0.9693232964      -25.4352435054       19.9696710598  MEMB      39              0.0000000000
      4150        39  SAPS      O12            -3.3396784601      -25.9160902181       19.3375188534  MEMB      39              0.0000000000
      4151        39  SAPS      O11            -1.6108177103      -27.0674555207       18.1864759012  MEMB      39              0.0000000000
      4152        39  SAPS      C1             -0.7161985214      -27.9703598599       18.8406203580  MEMB      39              0.0000000000
      4153        39  SAPS      HA              0.0782891874      -27.4450540654       19.4281616166  MEMB      39              0.0000000000
      4154        39  SAPS      HB             -1.2692946428      -28.6142920165       19.5528838122  MEMB      39              0.0000000000
      4155        39  SAPS      C2              0.0563220113      -28.8436034523       17.8159008317  MEMB      39              0.0000000000
      4156        39  SAPS      HS              0.9253833741      -29.2803867067       18.3604496244  MEMB      39              0.0000000000
      4157        39  SAPS      O21             0.5596683726      -28.1708925312       16.6515840590  MEMB      39              0.0000000000
      4158        39  SAPS      C21             0.8494856732      -26.9017998057       16.6884581889  MEMB      39              0.0000000000
      4159        39  SAPS      O22             1.0144944706      -26.1903052122       17.6574923942  MEMB      39              0.0000000000
      4160        39  SAPS      C22             1.2066274826      -26.4271516138       15.3071232815  MEMB      39              0.0000000000
      4161        39  SAPS      H2R             1.8698590028      -25.5484175650       15.4352454141  MEMB      39              0.0000000000
      4162        39  SAPS      H2S             1.7684142598      -27.2325061394       14.7885827746  MEMB      39              0.0000000000
      4163        39  SAPS      C3             -0.7987781105      -30.0322654856       17.2948781759  MEMB      39              0.0000000000
      4164        39  SAPS      HX             -1.0370219671      -30.7097366442       18.1369886837  MEMB      39              0.0000000000
      4165        39  SAPS      HY             -0.1069526056      -30.5289181909       16.5863596533  MEMB      39              0.0000000000
      4166        39  SAPS      O31            -2.0112384328      -29.6495109378       16.6243020429  MEMB      39              0.0000000000
      4167        39  SAPS      C31            -2.2653112263      -30.3371055430       15.5135679556  MEMB      39              0.0000000000
      4168        39  SAPS      O32            -1.7037052457      -31.3616085570       15.1726397411  MEMB      39              0.0000000000
      4169        39  SAPS      C32            -3.2767642168      -29.5720937095       14.6755713017  MEMB      39              0.0000000000
      4170        39  SAPS      H2X            -3.7747515687      -30.3076003372       14.0181075014  MEMB      39              0.0000000000
      4171        39  SAPS      H2Y            -2.6860424983      -28.8904324423       14.0299170310  MEMB      39              0.0000000000
      4172        39  SAPS      C23            -0.0462229082      -25.9995123835       14.5247347898  MEMB      39              0.0000000000
      4173        39  SAPS      H3R            -0.7067914158      -25.3585405612       15.1591905164  MEMB      39              0.0000000000
      4174        39  SAPS      H3S            -0.6283124509      -26.9108922719       14.2557380636  MEMB      39              0.0000000000
      4175        39  SAPS      C24             0.3243809419      -25.2078512885       13.2682861791  MEMB      39              0.0000000000
      4176        39  SAPS      H4R             0.7475446412      -24.2267307776       13.5766585964  MEMB      39              0.0000000000
      4177        39  SAPS      H4S            -0.5991341218      -24.9930787570       12.6877749212  MEMB      39              0.0000000000
      4178        39  SAPS      C25             1.3284317178      -26.0012484416       12.4733282600  MEMB      39              0.0000000000
      4179        39  SAPS      H5R             2.3774295473      -25.8745560005       12.7690447375  MEMB      39              0.0000000000
      4180        39  SAPS      C26             1.0336956611      -26.9310917720       11.5621956558  MEMB      39              0.0000000000
      4181        39  SAPS      H6R             1.8619196194      -27.4534563891       11.0535390689  MEMB      39              0.0000000000
      4182        39  SAPS      C27            -0.3731483876      -27.3217287529       11.1925559091  MEMB      39              0.0000000000
      4183        39  SAPS      H7R            -0.8169566166      -26.4566768630       10.6817154292  MEMB      39              0.0000000000
      4184        39  SAPS      H7S            -1.0003281328      -27.5209032198       12.0883520460  MEMB      39              0.0000000000
      4185        39  SAPS      C28            -0.3689704896      -28.5180021326       10.2900238317  MEMB      39              0.0000000000
      4186        39  SAPS      H8R             0.5001262720      -28.5616424927        9.6162710840  MEMB      39              0.0000000000
      4187        39  SAPS      C29            -1.2979671751      -29.4689803477       10.1110124589  MEMB      39              0.0000000000
      4188        39  SAPS      H9R            -0.9672762383      -30.3556021816        9.5581946352  MEMB      39              0.0000000000
      4189        39  SAPS      C210           -2.6523171393      -29.6958139584       10.7115169132  MEMB      39              0.0000000000
      4190        39  SAPS      H10R           -3.2510133516      -28.7614518301       10.6868324426  MEMB      39              0.0000000000
      4191        39  SAPS      H10S           -2.5013148352      -29.9500424516       11.7842210889  MEMB      39              0.0000000000
      4192        39  SAPS      C211           -3.4020547541      -30.8397933221       10.0427168425  MEMB      39              0.0000000000
      4193        39  SAPS      H11R           -3.9462171328      -31.4539144689       10.7717943373  MEMB      39              0.0000000000
      4194        39  SAPS      C212           -3.5021590907      -31.2112233898        8.7368119303  MEMB      39              0.0000000000
      4195        39  SAPS      H12R           -4.1170933464      -32.0977333385        8.5114939210  MEMB      39              0.0000000000
      4196        39  SAPS      C213           -2.8865676533      -30.5794274119        7.4999496409  MEMB      39              0.0000000000
      4197        39  SAPS      H13R           -2.2629712538      -29.7024106190        7.7613581938  MEMB      39              0.0000000000
      4198        39  SAPS      H13S           -3.7207194504      -30.1502061587        6.9346184845  MEMB      39              0.0000000000
      4199        39  SAPS      C214           -2.0842641291      -31.4427357470        6.5515945619  MEMB      39              0.0000000000
      4200        39  SAPS      H14R           -1.2035539864      -31.9181009716        7.0039510789  MEMB      39              0.0000000000
      4201        39  SAPS      C215           -2.2750796214      -31.6100452825        5.2273705937  MEMB      39              0.0000000000
      4202        39  SAPS      H15R           -1.6413640690      -32.3323804403        4.6845603212  MEMB      39              0.0000000000
      4203        39  SAPS      C216           -3.3586837529      -30.9578237441        4.4042168914  MEMB      39              0.0000000000
      4204        39  SAPS      H16R           -4.2339748790      -30.7081104921        5.0367728793  MEMB      39              0.0000000000
      4205        39  SAPS      H16S           -3.7469108382      -31.6644897119        3.6395865748  MEMB      39              0.0000000000
      4206        39  SAPS      C217           -2.9872917986      -29.6820351565        3.6323441079  MEMB      39              0.0000000000
      4207        39  SAPS      H17R           -2.4761228637      -28.9276235722        4.2678924680  MEMB      39              0.0000000000
      4208        39  SAPS      H17S           -3.9670540315      -29.2452242413        3.3304828091  MEMB      39              0.0000000000
      4209        39  SAPS      C218           -2.1751181992      -29.9813165893        2.3652648668  MEMB      39              0.0000000000
      4210        39  SAPS      H18R           -2.5092257201      -30.9572101886        1.9420362399  MEMB      39              0.0000000000
      4211        39  SAPS      H18S           -1.1002763834      -30.0904302123        2.6357181119  MEMB      39              0.0000000000
      4212        39  SAPS      C219           -2.3541302764      -28.9255954117        1.2622844319  MEMB      39              0.0000000000
      4213        39  SAPS      H19R           -1.7103386259      -29.2259559898        0.4023752711  MEMB      39              0.0000000000
      4214        39  SAPS      H19S           -1.9924262217      -27.9437841986        1.6411552856  MEMB      39              0.0000000000
      4215        39  SAPS      C220           -3.7821054361      -28.7529202961        0.7409748140  MEMB      39              0.0000000000
      4216        39  SAPS      H20R           -4.4515055573      -28.3498652301        1.5290421691  MEMB      39              0.0000000000
      4217        39  SAPS      H20S           -4.1802435479      -29.7312795025        0.4041457206  MEMB      39              0.0000000000
      4218        39  SAPS      H20T           -3.8016792342      -28.0476552861       -0.1174670716  MEMB      39              0.0000000000
      4219        39  SAPS      C33            -4.3395008173      -28.7706344733       15.4632512667  MEMB      39              0.0000000000
      4220        39  SAPS      H3X            -3.8725497656      -27.8741115629       15.9366858767  MEMB      39              0.0000000000
      4221        39  SAPS      H3Y            -4.7789775257      -29.3720717360       16.2897138505  MEMB      39              0.0000000000
      4222        39  SAPS      C34            -5.4644926772      -28.3348076897       14.5146069595  MEMB      39              0.0000000000
      4223        39  SAPS      H4X            -6.1962390997      -27.7222643782       15.0765564613  MEMB      39              0.0000000000
      4224        39  SAPS      H4Y            -6.0064708099      -29.2293917010       14.1328883329  MEMB      39              0.0000000000
      4225        39  SAPS      C35            -4.9428209009      -27.5201491293       13.3251559264  MEMB      39              0.0000000000
      4226        39  SAPS      H5X            -5.8072069851      -27.1194364485       12.7556804264  MEMB      39              0.0000000000
      4227        39  SAPS      H5Y            -4.3841013256      -28.1932144138       12.6377468530  MEMB      39              0.0000000000
      4228        39  SAPS      C36            -4.0094025727      -26.3697806873       13.7364021509  MEMB      39              0.0000000000
      4229        39  SAPS      H6X            -3.0191017048      -26.7825623208       14.0312108525  MEMB      39              0.0000000000
      4230        39  SAPS      H6Y            -4.4267646638      -25.8565990254       14.6331365782  MEMB      39              0.0000000000
      4231        39  SAPS      C37            -3.7798151220      -25.3280823713       12.6361974961  MEMB      39              0.0000000000
      4232        39  SAPS      H7X            -2.8069665686      -24.8235468211       12.8275611804  MEMB      39              0.0000000000
      4233        39  SAPS      H7Y            -4.5545043988      -24.5412462601       12.7342204182  MEMB      39              0.0000000000
      4234        39  SAPS      C38            -3.8094874490      -25.9012803134       11.2105007038  MEMB      39              0.0000000000
      4235        39  SAPS      H8X            -4.7395418687      -26.4830467332       11.0266582106  MEMB      39              0.0000000000
      4236        39  SAPS      H8Y            -2.9553026854      -26.5939080055       11.0883435224  MEMB      39              0.0000000000
      4237        39  SAPS      C39            -3.7785662827      -24.8100622752       10.1379349185  MEMB      39              0.0000000000
      4238        39  SAPS      H9X            -2.9071493891      -24.1468051634       10.3088691251  MEMB      39              0.0000000000
      4239        39  SAPS      H9Y            -4.6725704224      -24.1955974029       10.3044682451  MEMB      39              0.0000000000
      4240        39  SAPS      C310           -3.7445243624      -25.3597123890        8.6979624541  MEMB      39              0.0000000000
      4241        39  SAPS      H10X           -3.7722768387      -24.5142209821        7.9789637343  MEMB      39              0.0000000000
      4242        39  SAPS      H10Y           -4.6476178453      -25.9723392104        8.5139852844  MEMB      39              0.0000000000
      4243        39  SAPS      C311           -2.4718743277      -26.1900097291        8.4967605441  MEMB      39              0.0000000000
      4244        39  SAPS      H11X           -2.6204026342      -27.2422121986        8.8262564852  MEMB      39              0.0000000000
      4245        39  SAPS      H11Y           -1.7610894666      -25.7104660423        9.2046110044  MEMB      39              0.0000000000
      4246        39  SAPS      C312           -1.7416622618      -26.1126956049        7.1478666210  MEMB      39              0.0000000000
      4247        39  SAPS      H12X           -2.1651187728      -25.2861192103        6.5395473905  MEMB      39              0.0000000000
      4248        39  SAPS      H12Y           -1.8916652921      -27.0685451448        6.5970333608  MEMB      39              0.0000000000
      4249        39  SAPS      C313           -0.2338694552      -25.8652146530        7.3803519536  MEMB      39              0.0000000000
      4250        39  SAPS      H13X            0.1225159125      -26.6181887017        8.1207818809  MEMB      39              0.0000000000
      4251        39  SAPS      H13Y           -0.0991881565      -24.8614439196        7.8421821941  MEMB      39              0.0000000000
      4252        39  SAPS      C314            0.6642487238      -25.9669875770        6.1400931638  MEMB      39              0.0000000000
      4253        39  SAPS      H14X            0.4943218980      -26.9535027255        5.6533684813  MEMB      39              0.0000000000
      4254        39  SAPS      H14Y            1.7345313713      -25.9224602929        6.4521948809  MEMB      39              0.0000000000
      4255        39  SAPS      C315            0.4266568286      -24.8710117881        5.1025749833  MEMB      39              0.0000000000
      4256        39  SAPS      H15X            0.8127997401      -23.8993390081        5.4823561093  MEMB      39              0.0000000000
      4257        39  SAPS      H15Y           -0.6675828737      -24.7652470513        4.9380407785  MEMB      39              0.0000000000
      4258        39  SAPS      C316            1.0812888078      -25.2142972650        3.7602783609  MEMB      39              0.0000000000
      4259        39  SAPS      H16X            0.7836479712      -26.2484915650        3.4814997027  MEMB      39              0.0000000000
      4260        39  SAPS      H16Y            2.1879838691      -25.1828361681        3.8542945629  MEMB      39              0.0000000000
      4261        39  SAPS      C317            0.6365753438      -24.2863188175        2.6381552445  MEMB      39              0.0000000000
      4262        39  SAPS      H17X           -0.4648981216      -24.2653990716        2.6650168640  MEMB      39              0.0000000000
      4263        39  SAPS      H17Y            0.8880184743      -24.6962295990        1.6405958351  MEMB      39              0.0000000000
      4264        39  SAPS      C318            1.2547490750      -22.9000297562        2.7517156811  MEMB      39              0.0000000000
      4265        39  SAPS      H18X            2.2994705861      -22.9954209301        3.0983530279  MEMB      39              0.0000000000
      4266        39  SAPS      H18Y            0.7016740533      -22.2628080124        3.4778146176  MEMB      39              0.0000000000
      4267        39  SAPS      H18Z            1.2591156322      -22.4022855658        1.7568183786  MEMB      39              0.0000000000
      4268        40  SLPC      N              27.8178861885       -7.0164479736       17.2624976672  MEMB      40              0.0000000000
      4269        40  SLPC      C13            27.9567654874       -8.5084934607       17.3274869339  MEMB      40              0.0000000000
      4270        40  SLPC      H13A           28.2675462978       -8.8595479115       18.3018510449  MEMB      40              0.0000000000
      4271        40  SLPC      H13B           26.9654284107       -8.9421484977       17.1244200529  MEMB      40              0.0000000000
      4272        40  SLPC      H13C           28.5928086093       -8.9062708570       16.5492667798  MEMB      40              0.0000000000
      4273        40  SLPC      C14            27.3454406825       -6.6991860358       15.8658295629  MEMB      40              0.0000000000
      4274        40  SLPC      H14A           27.9566939104       -7.1724874276       15.1113716111  MEMB      40              0.0000000000
      4275        40  SLPC      H14B           26.3358405261       -7.1207983316       15.7585816209  MEMB      40              0.0000000000
      4276        40  SLPC      H14C           27.2781598158       -5.6349252238       15.6946821133  MEMB      40              0.0000000000
      4277        40  SLPC      C15            29.1183838372       -6.3590270239       17.5173090653  MEMB      40              0.0000000000
      4278        40  SLPC      H15A           29.5076061176       -6.6371746899       18.4861252521  MEMB      40              0.0000000000
      4279        40  SLPC      H15B           29.8295753387       -6.6634700523       16.7599542293  MEMB      40              0.0000000000
      4280        40  SLPC      H15C           29.0289288403       -5.2761355502       17.4789849137  MEMB      40              0.0000000000
      4281        40  SLPC      C12            26.7460588465       -6.5635642387       18.2457722009  MEMB      40              0.0000000000
      4282        40  SLPC      H12A           26.4034714935       -5.5751497534       17.9597622716  MEMB      40              0.0000000000
      4283        40  SLPC      H12B           27.1493533144       -6.4963182004       19.2484387671  MEMB      40              0.0000000000
      4284        40  SLPC      C11            25.4951613692       -7.4634441940       18.3337453248  MEMB      40              0.0000000000
      4285        40  SLPC      H11A           24.7238324816       -6.9703083794       18.9621182635  MEMB      40              0.0000000000
      4286        40  SLPC      H11B           25.7904377060       -8.4020962945       18.8703691577  MEMB      40              0.0000000000
      4287        40  SLPC      P              24.3275533709       -9.1089267130       16.7405443216  MEMB      40              0.0000000000
      4288        40  SLPC      O13            25.4120774688      -10.0014472308       16.2742681116  MEMB      40              0.0000000000
      4289        40  SLPC      O14            23.5659201323       -9.5066588434       17.9468128008  MEMB      40              0.0000000000
      4290        40  SLPC      O12            24.9522529218       -7.6931192015       17.0313193575  MEMB      40              0.0000000000
      4291        40  SLPC      O11            23.3387435039       -8.7759089662       15.5808495046  MEMB      40              0.0000000000
      4292        40  SLPC      C1             23.5192115005       -7.6770562134       14.6824353882  MEMB      40              0.0000000000
      4293        40  SLPC      HA             23.4031524709       -6.7044337909       15.2085252230  MEMB      40              0.0000000000
      4294        40  SLPC      HB             24.5194335812       -7.7132366415       14.1910969524  MEMB      40              0.0000000000
      4295        40  SLPC      C2             22.4354632878       -7.8312859228       13.6050749113  MEMB      40              0.0000000000
      4296        40  SLPC      HS             21.5006473514       -8.0083542143       14.2011374862  MEMB      40              0.0000000000
      4297        40  SLPC      O21            22.8283829779       -8.9586169828       12.8279305815  MEMB      40              0.0000000000
      4298        40  SLPC      C21            21.8203908035       -9.6487355430       12.4076244950  MEMB      40              0.0000000000
      4299        40  SLPC      O22            20.6460390438       -9.4655263660       12.6639714721  MEMB      40              0.0000000000
      4300        40  SLPC      C22            22.3394619428      -10.7688381707       11.5508392043  MEMB      40              0.0000000000
      4301        40  SLPC      H2R            23.4459042667      -10.8267783533       11.6593147819  MEMB      40              0.0000000000
      4302        40  SLPC      H2S            21.8344889850      -11.6776904357       11.9395875685  MEMB      40              0.0000000000
      4303        40  SLPC      C3             22.1326709898       -6.6482640667       12.6394470421  MEMB      40              0.0000000000
      4304        40  SLPC      HX             22.0761697692       -5.7123239875       13.2200061132  MEMB      40              0.0000000000
      4305        40  SLPC      HY             21.1057488615       -6.8202335796       12.2448537711  MEMB      40              0.0000000000
      4306        40  SLPC      O31            22.9870780056       -6.5688998415       11.4771065781  MEMB      40              0.0000000000
      4307        40  SLPC      C31            24.1877825300       -6.0438180861       11.6316620260  MEMB      40              0.0000000000
      4308        40  SLPC      O32            24.6673646489       -5.6553284647       12.6818032887  MEMB      40              0.0000000000
      4309        40  SLPC      C32            24.8764653659       -5.9235147778       10.2719530065  MEMB      40              0.0000000000
      4310        40  SLPC      H2X            25.2991561664       -4.8988150230       10.2263744099  MEMB      40              0.0000000000
      4311        40  SLPC      H2Y            24.1292197555       -6.0219435814        9.4606544925  MEMB      40              0.0000000000
      4312        40  SLPC      C23            21.9912876394      -10.6520207056       10.0715538683  MEMB      40              0.0000000000
      4313        40  SLPC      H3R            22.7465644246      -11.2063012254        9.4685557749  MEMB      40              0.0000000000
      4314        40  SLPC      H3S            22.0547322680       -9.5855436250        9.7735906020  MEMB      40              0.0000000000
      4315        40  SLPC      C24            20.6473440439      -11.3222956039        9.7832045098  MEMB      40              0.0000000000
      4316        40  SLPC      H4R            19.8576816962      -10.8453045206       10.4061563272  MEMB      40              0.0000000000
      4317        40  SLPC      H4S            20.7257780968      -12.3751829839       10.0913005548  MEMB      40              0.0000000000
      4318        40  SLPC      C25            20.2554897839      -11.2521367070        8.3113987063  MEMB      40              0.0000000000
      4319        40  SLPC      H5R            19.1745438632      -11.4828631010        8.1900614427  MEMB      40              0.0000000000
      4320        40  SLPC      H5S            20.8290462213      -11.9909736303        7.7109318710  MEMB      40              0.0000000000
      4321        40  SLPC      C26            20.5448543834       -9.8337036010        7.8689550677  MEMB      40              0.0000000000
      4322        40  SLPC      H6R            21.6334675877       -9.6695829642        7.7197625711  MEMB      40              0.0000000000
      4323        40  SLPC      H6S            20.2463740802       -9.1842077205        8.7265901826  MEMB      40              0.0000000000
      4324        40  SLPC      C27            19.8091936487       -9.3334733955        6.6503522555  MEMB      40              0.0000000000
      4325        40  SLPC      H7R            18.7404495337       -9.5699225208        6.7931345557  MEMB      40              0.0000000000
      4326        40  SLPC      H7S            20.1398228367       -9.8207694804        5.7074911564  MEMB      40              0.0000000000
      4327        40  SLPC      C28            20.0729132898       -7.8317947884        6.6160985286  MEMB      40              0.0000000000
      4328        40  SLPC      H8R            21.1284406591       -7.7021539581        6.2809415041  MEMB      40              0.0000000000
      4329        40  SLPC      H8S            20.0391370045       -7.4029381203        7.6405638933  MEMB      40              0.0000000000
      4330        40  SLPC      C29            19.0697955964       -7.1360329604        5.7587025631  MEMB      40              0.0000000000
      4331        40  SLPC      H9R            18.0030454370       -7.3270255419        5.9355533247  MEMB      40              0.0000000000
      4332        40  SLPC      C210           19.4234526320       -6.2213316949        4.8726027220  MEMB      40              0.0000000000
      4333        40  SLPC      H10R           18.6307164654       -5.7806249003        4.2393573862  MEMB      40              0.0000000000
      4334        40  SLPC      C211           20.8490847024       -5.7947393292        4.6517801797  MEMB      40              0.0000000000
      4335        40  SLPC      H11R           21.4380479665       -6.5070019846        4.0336780919  MEMB      40              0.0000000000
      4336        40  SLPC      H11S           21.4126420789       -5.6698578055        5.6080644326  MEMB      40              0.0000000000
      4337        40  SLPC      C212           20.6694292982       -4.4771727574        3.9912437883  MEMB      40              0.0000000000
      4338        40  SLPC      H12R           20.7628611249       -3.6445318648        4.6669713030  MEMB      40              0.0000000000
      4339        40  SLPC      C213           20.5428216562       -4.1958176162        2.7006131022  MEMB      40              0.0000000000
      4340        40  SLPC      H13R           20.3685862628       -3.1685716850        2.3837134879  MEMB      40              0.0000000000
      4341        40  SLPC      C214           20.6064267427       -5.1111651283        1.5517875455  MEMB      40              0.0000000000
      4342        40  SLPC      H14R           20.0800517342       -4.5835916511        0.7367407746  MEMB      40              0.0000000000
      4343        40  SLPC      H14S           20.0378394678       -6.0388958964        1.7003487693  MEMB      40              0.0000000000
      4344        40  SLPC      C215           22.0954617366       -5.3636401692        1.2741274558  MEMB      40              0.0000000000
      4345        40  SLPC      H15R           22.4439099313       -6.2725752579        1.8100254451  MEMB      40              0.0000000000
      4346        40  SLPC      H15S           22.7550206145       -4.5301308185        1.6267368203  MEMB      40              0.0000000000
      4347        40  SLPC      C216           22.3410851115       -5.4568917117       -0.2238263952  MEMB      40              0.0000000000
      4348        40  SLPC      H16R           21.7996289382       -6.3485924453       -0.6042885099  MEMB      40              0.0000000000
      4349        40  SLPC      H16S           23.4172273364       -5.6511549712       -0.3762337984  MEMB      40              0.0000000000
      4350        40  SLPC      C217           21.7620200978       -4.2054362174       -0.9200071249  MEMB      40              0.0000000000
      4351        40  SLPC      H17R           21.6941424649       -3.3952215295       -0.1735711513  MEMB      40              0.0000000000
      4352        40  SLPC      H17S           20.7180904122       -4.4621630034       -1.2061120061  MEMB      40              0.0000000000
      4353        40  SLPC      C218           22.4044367789       -3.5550394920       -2.1221289959  MEMB      40              0.0000000000
      4354        40  SLPC      H18R           23.1315330864       -2.7662617235       -1.8339153643  MEMB      40              0.0000000000
      4355        40  SLPC      H18S           21.6054761052       -3.0768760548       -2.7067460220  MEMB      40              0.0000000000
      4356        40  SLPC      H18T           22.8702358613       -4.2797263225       -2.8053991974  MEMB      40              0.0000000000
      4357        40  SLPC      C33            26.0353506652       -6.9241796304       10.0860958704  MEMB      40              0.0000000000
      4358        40  SLPC      H3X            26.7809350349       -6.7999709544       10.9041608116  MEMB      40              0.0000000000
      4359        40  SLPC      H3Y            26.5583521419       -6.6932191039        9.1298159107  MEMB      40              0.0000000000
      4360        40  SLPC      C34            25.5756968271       -8.3835877747       10.0336995747  MEMB      40              0.0000000000
      4361        40  SLPC      H4X            25.0908177752       -8.6418819651       11.0056306680  MEMB      40              0.0000000000
      4362        40  SLPC      H4Y            26.4652407142       -9.0449096294        9.9266674441  MEMB      40              0.0000000000
      4363        40  SLPC      C35            24.5776489643       -8.7267439484        8.9117746296  MEMB      40              0.0000000000
      4364        40  SLPC      H5X            23.6398653215       -8.1432492926        9.0285423856  MEMB      40              0.0000000000
      4365        40  SLPC      H5Y            24.3288569449       -9.7879016590        9.1086807082  MEMB      40              0.0000000000
      4366        40  SLPC      C36            25.0930786384       -8.5801484008        7.4623920428  MEMB      40              0.0000000000
      4367        40  SLPC      H6X            26.0927557835       -9.0612859636        7.3867171353  MEMB      40              0.0000000000
      4368        40  SLPC      H6Y            25.2176583615       -7.4968016415        7.2433152674  MEMB      40              0.0000000000
      4369        40  SLPC      C37            24.1617665800       -9.1980152236        6.3873926353  MEMB      40              0.0000000000
      4370        40  SLPC      H7X            24.5697612563       -8.9872693346        5.3746827687  MEMB      40              0.0000000000
      4371        40  SLPC      H7Y            23.1642897447       -8.7148345402        6.4553059644  MEMB      40              0.0000000000
      4372        40  SLPC      C38            24.0066107425      -10.7151923992        6.5409789771  MEMB      40              0.0000000000
      4373        40  SLPC      H8X            23.8445661471      -10.9337848939        7.6167642630  MEMB      40              0.0000000000
      4374        40  SLPC      H8Y            24.9594514283      -11.2072607555        6.2552958441  MEMB      40              0.0000000000
      4375        40  SLPC      C39            22.8076067262      -11.3916129220        5.8497672104  MEMB      40              0.0000000000
      4376        40  SLPC      H9X            21.8808863707      -10.8487891271        6.0570734752  MEMB      40              0.0000000000
      4377        40  SLPC      H9Y            22.6555044448      -12.4044164405        6.2840912087  MEMB      40              0.0000000000
      4378        40  SLPC      C310           22.8989023562      -11.5782275366        4.3487210504  MEMB      40              0.0000000000
      4379        40  SLPC      H10X           23.8752747860      -12.0617209879        4.1224510107  MEMB      40              0.0000000000
      4380        40  SLPC      H10Y           22.8803875118      -10.5899629334        3.8413265973  MEMB      40              0.0000000000
      4381        40  SLPC      C311           21.7500629838      -12.4732251611        3.8381208611  MEMB      40              0.0000000000
      4382        40  SLPC      H11X           20.8726602879      -11.8543739520        3.5487897078  MEMB      40              0.0000000000
      4383        40  SLPC      H11Y           21.4161758644      -13.1490374237        4.6590258771  MEMB      40              0.0000000000
      4384        40  SLPC      C312           22.2102477586      -13.3395335055        2.6580380543  MEMB      40              0.0000000000
      4385        40  SLPC      H12X           21.5050846664      -14.1812759863        2.4914172795  MEMB      40              0.0000000000
      4386        40  SLPC      H12Y           23.1844156375      -13.7539181599        2.9652354923  MEMB      40              0.0000000000
      4387        40  SLPC      C313           22.4078658956      -12.4972841225        1.3956555287  MEMB      40              0.0000000000
      4388        40  SLPC      H13X           22.6220709732      -11.4998576951        1.8387595181  MEMB      40              0.0000000000
      4389        40  SLPC      H13Y           21.4639507794      -12.4147290880        0.8234341364  MEMB      40              0.0000000000
      4390        40  SLPC      C314           23.6258312369      -12.7037028548        0.4705261496  MEMB      40              0.0000000000
      4391        40  SLPC      H14X           23.3484520306      -13.2383084594       -0.4617933730  MEMB      40              0.0000000000
      4392        40  SLPC      H14Y           24.4452566469      -13.2640038130        0.9443727772  MEMB      40              0.0000000000
      4393        40  SLPC      C315           24.2228424415      -11.3231176526        0.1892866853  MEMB      40              0.0000000000
      4394        40  SLPC      H15X           24.8562126090      -11.0350689715        1.0600028835  MEMB      40              0.0000000000
      4395        40  SLPC      H15Y           23.3762993107      -10.6106093481        0.1382996710  MEMB      40              0.0000000000
      4396        40  SLPC      C316           24.9736300707      -11.1444557471       -1.1145831355  MEMB      40              0.0000000000
      4397        40  SLPC      H16X           24.3298065121      -11.4930035801       -1.9460318169  MEMB      40              0.0000000000
      4398        40  SLPC      H16Y           25.9221676366      -11.7237873515       -1.1618735302  MEMB      40              0.0000000000
      4399        40  SLPC      C317           25.2411256625       -9.6703720325       -1.3968667167  MEMB      40              0.0000000000
      4400        40  SLPC      H17X           24.5968736745       -9.3728352583       -2.2571828784  MEMB      40              0.0000000000
      4401        40  SLPC      H17Y           26.3067762600       -9.6337181120       -1.7074539644  MEMB      40              0.0000000000
      4402        40  SLPC      C318           25.0167091383       -8.6398238557       -0.2885403444  MEMB      40              0.0000000000
      4403        40  SLPC      H18X           25.2479779506       -7.6360656683       -0.6998436000  MEMB      40              0.0000000000
      4404        40  SLPC      H18Y           25.6643991612       -8.8416356029        0.5922503053  MEMB      40              0.0000000000
      4405        40  SLPC      H18Z           23.9607786059       -8.5900716775        0.0340111255  MEMB      40              0.0000000000
      4406        41  SAPC      N              20.4550532265       16.2941307943       21.8055584615  MEMB      41              0.0000000000
      4407        41  SAPC      C12            20.7903015862       17.6614076001       22.3947995140  MEMB      41              0.0000000000
      4408        41  SAPC      H12A           21.6056092582       17.5517183754       23.0924493223  MEMB      41              0.0000000000
      4409        41  SAPC      H12B           19.9347887083       18.0240678114       22.9528478612  MEMB      41              0.0000000000
      4410        41  SAPC      C13            21.5981235160       15.8579530528       20.9633199912  MEMB      41              0.0000000000
      4411        41  SAPC      H13A           22.5123085323       15.7705688225       21.5445067374  MEMB      41              0.0000000000
      4412        41  SAPC      H13B           21.4034833539       14.8847950954       20.5396527353  MEMB      41              0.0000000000
      4413        41  SAPC      H13C           21.7739933100       16.5728772057       20.1612885534  MEMB      41              0.0000000000
      4414        41  SAPC      C14            20.1756659220       15.2290708402       22.8065596355  MEMB      41              0.0000000000
      4415        41  SAPC      H14A           21.0228429059       14.9963620458       23.4364184441  MEMB      41              0.0000000000
      4416        41  SAPC      H14B           19.3804372439       15.5230079045       23.4857583489  MEMB      41              0.0000000000
      4417        41  SAPC      H14C           19.8213062111       14.3193334973       22.3196750529  MEMB      41              0.0000000000
      4418        41  SAPC      C15            19.1976486515       16.3876813623       20.9893802147  MEMB      41              0.0000000000
      4419        41  SAPC      H15A           18.3588900464       16.6599572772       21.6158245657  MEMB      41              0.0000000000
      4420        41  SAPC      H15B           19.3165842758       17.1535053537       20.2281948898  MEMB      41              0.0000000000
      4421        41  SAPC      H15C           18.9452346124       15.4613266048       20.4866053556  MEMB      41              0.0000000000
      4422        41  SAPC      C11            21.1779396825       18.7810039181       21.3794046925  MEMB      41              0.0000000000
      4423        41  SAPC      H11A           22.1775196184       18.5693060686       20.9315397529  MEMB      41              0.0000000000
      4424        41  SAPC      H11B           21.2545125081       19.7493094429       21.9326423472  MEMB      41              0.0000000000
      4425        41  SAPC      P              20.3185052813       19.5565311597       18.9786108012  MEMB      41              0.0000000000
      4426        41  SAPC      O13            20.1587065154       20.9958806398       19.3138178834  MEMB      41              0.0000000000
      4427        41  SAPC      O14            21.4721497995       19.0608291601       18.2179868174  MEMB      41              0.0000000000
      4428        41  SAPC      O12            20.1793304327       18.8541603814       20.3770671009  MEMB      41              0.0000000000
      4429        41  SAPC      O11            18.9852482436       19.0786551685       18.3168131254  MEMB      41              0.0000000000
      4430        41  SAPC      C1             17.8173520558       19.0284111959       19.1371985094  MEMB      41              0.0000000000
      4431        41  SAPC      HA             17.6123146092       17.9638175374       19.3551779572  MEMB      41              0.0000000000
      4432        41  SAPC      HB             17.9190374527       19.5360397966       20.1293213759  MEMB      41              0.0000000000
      4433        41  SAPC      C2             16.6281416940       19.6876816928       18.4103652055  MEMB      41              0.0000000000
      4434        41  SAPC      HS             15.7330933520       19.5917359927       19.0687078276  MEMB      41              0.0000000000
      4435        41  SAPC      O21            16.3770188643       19.0721547316       17.1585566392  MEMB      41              0.0000000000
      4436        41  SAPC      C21            16.1616530750       17.8035188021       17.1361670048  MEMB      41              0.0000000000
      4437        41  SAPC      O22            15.8127208170       17.1014907455       18.0778996023  MEMB      41              0.0000000000
      4438        41  SAPC      C22            16.3395061872       17.3133904996       15.7178553435  MEMB      41              0.0000000000
      4439        41  SAPC      H2R            15.7617769188       16.3731106718       15.6102955942  MEMB      41              0.0000000000
      4440        41  SAPC      H2S            15.9343672531       18.0803363374       15.0278477520  MEMB      41              0.0000000000
      4441        41  SAPC      C3             16.8256028518       21.2041075740       18.1532745042  MEMB      41              0.0000000000
      4442        41  SAPC      HX             17.2211299238       21.6452934098       19.0942408981  MEMB      41              0.0000000000
      4443        41  SAPC      HY             15.8197445734       21.6264519825       17.9645233665  MEMB      41              0.0000000000
      4444        41  SAPC      O31            17.7232332989       21.5698393645       17.0876811705  MEMB      41              0.0000000000
      4445        41  SAPC      C31            17.3086639883       21.4713041363       15.8318347909  MEMB      41              0.0000000000
      4446        41  SAPC      O32            16.3054766597       20.9265294898       15.4189173057  MEMB      41              0.0000000000
      4447        41  SAPC      C32            18.1795964534       22.3618501108       14.9756585274  MEMB      41              0.0000000000
      4448        41  SAPC      H2X            18.9467955943       22.8388206320       15.6000419783  MEMB      41              0.0000000000
      4449        41  SAPC      H2Y            17.5297746780       23.1811258253       14.6188804196  MEMB      41              0.0000000000
      4450        41  SAPC      C23            17.7992144637       17.0895498922       15.2927903080  MEMB      41              0.0000000000
      4451        41  SAPC      H3R            18.3055737590       16.3465470304       15.9493634273  MEMB      41              0.0000000000
      4452        41  SAPC      H3S            18.3767971180       18.0245959117       15.4226344975  MEMB      41              0.0000000000
      4453        41  SAPC      C24            17.7657458275       16.6013603687       13.8327779470  MEMB      41              0.0000000000
      4454        41  SAPC      H4R            16.7363807759       16.7422856401       13.4321146270  MEMB      41              0.0000000000
      4455        41  SAPC      H4S            17.9287146754       15.5193260059       13.8856497245  MEMB      41              0.0000000000
      4456        41  SAPC      C25            18.7870394786       17.1548723057       12.8916933794  MEMB      41              0.0000000000
      4457        41  SAPC      H5R            19.8051607202       17.2223770837       13.3037891418  MEMB      41              0.0000000000
      4458        41  SAPC      C26            18.5638508275       17.5909327160       11.6408303378  MEMB      41              0.0000000000
      4459        41  SAPC      H6R            19.4189947902       18.0246174725       11.1060487451  MEMB      41              0.0000000000
      4460        41  SAPC      C27            17.2604863050       17.6372679268       10.8724089606  MEMB      41              0.0000000000
      4461        41  SAPC      H7R            16.6984708112       18.5467151836       11.1807220658  MEMB      41              0.0000000000
      4462        41  SAPC      H7S            16.6058343728       16.7771371559       11.1316613295  MEMB      41              0.0000000000
      4463        41  SAPC      C28            17.4856294092       17.6925928732        9.3781003129  MEMB      41              0.0000000000
      4464        41  SAPC      H8R            17.2180204184       16.7856070352        8.8145329110  MEMB      41              0.0000000000
      4465        41  SAPC      C29            17.9882451213       18.7447541447        8.7073902496  MEMB      41              0.0000000000
      4466        41  SAPC      H9R            18.1208709762       18.6708796081        7.6155734788  MEMB      41              0.0000000000
      4467        41  SAPC      C210           18.4139052366       20.0571732016        9.3257154765  MEMB      41              0.0000000000
      4468        41  SAPC      H10R           19.3724805054       20.3804162918        8.8632500071  MEMB      41              0.0000000000
      4469        41  SAPC      H10S           18.6338060046       19.9671871789       10.4105254901  MEMB      41              0.0000000000
      4470        41  SAPC      C211           17.3330367618       21.0863512862        9.1263118236  MEMB      41              0.0000000000
      4471        41  SAPC      H11R           16.6018355745       21.1912994978        9.9448060905  MEMB      41              0.0000000000
      4472        41  SAPC      C212           17.2432290933       21.8642287539        8.0351359026  MEMB      41              0.0000000000
      4473        41  SAPC      H12R           16.3632367882       22.5093972787        7.9028611307  MEMB      41              0.0000000000
      4474        41  SAPC      C213           18.2178227830       21.7954482197        6.8873796695  MEMB      41              0.0000000000
      4475        41  SAPC      H13R           18.3810840014       20.7270970187        6.6183610879  MEMB      41              0.0000000000
      4476        41  SAPC      H13S           19.2092433859       22.1686974941        7.2246808545  MEMB      41              0.0000000000
      4477        41  SAPC      C214           17.8139009277       22.5575405859        5.6539874804  MEMB      41              0.0000000000
      4478        41  SAPC      H14R           18.0729968014       23.6294250944        5.6406062826  MEMB      41              0.0000000000
      4479        41  SAPC      C215           17.1324533755       22.0300625584        4.6242165291  MEMB      41              0.0000000000
      4480        41  SAPC      H15R           16.9092575573       22.6576740442        3.7475316994  MEMB      41              0.0000000000
      4481        41  SAPC      C216           16.6570745121       20.6023183479        4.5331267213  MEMB      41              0.0000000000
      4482        41  SAPC      H16R           16.4548917130       20.1585763915        5.5350519752  MEMB      41              0.0000000000
      4483        41  SAPC      H16S           17.4489676724       19.9835950524        4.0585951946  MEMB      41              0.0000000000
      4484        41  SAPC      C217           15.3759312747       20.4683798559        3.6943007032  MEMB      41              0.0000000000
      4485        41  SAPC      H17R           15.4173548767       19.4792767735        3.1857534614  MEMB      41              0.0000000000
      4486        41  SAPC      H17S           15.3431232373       21.2516042376        2.9055642953  MEMB      41              0.0000000000
      4487        41  SAPC      C218           14.0780011962       20.5707812453        4.4986692093  MEMB      41              0.0000000000
      4488        41  SAPC      H18R           14.0556886316       21.5581040092        5.0134515452  MEMB      41              0.0000000000
      4489        41  SAPC      H18S           14.0676983947       19.7769906729        5.2783819586  MEMB      41              0.0000000000
      4490        41  SAPC      C219           12.8395635314       20.4369277228        3.6032329056  MEMB      41              0.0000000000
      4491        41  SAPC      H19R           12.8820233115       21.2355370470        2.8276904052  MEMB      41              0.0000000000
      4492        41  SAPC      H19S           11.9268418235       20.6166657453        4.2162906982  MEMB      41              0.0000000000
      4493        41  SAPC      C220           12.7279053375       19.0711129662        2.9180242473  MEMB      41              0.0000000000
      4494        41  SAPC      H20R           11.7939940883       18.9989305282        2.3221537198  MEMB      41              0.0000000000
      4495        41  SAPC      H20S           12.7257952395       18.2684405411        3.6853021902  MEMB      41              0.0000000000
      4496        41  SAPC      H20T           13.5826198021       18.8961086554        2.2306701047  MEMB      41              0.0000000000
      4497        41  SAPC      C33            18.7557592988       21.6265323462       13.7590567075  MEMB      41              0.0000000000
      4498        41  SAPC      H3X            19.6836825585       22.1325402900       13.4446357255  MEMB      41              0.0000000000
      4499        41  SAPC      H3Y            18.0158090792       21.7052731215       12.9268585326  MEMB      41              0.0000000000
      4500        41  SAPC      C34            19.0670560733       20.1401211975       13.9222821354  MEMB      41              0.0000000000
      4501        41  SAPC      H4X            19.1859564926       19.7493020997       12.8927314291  MEMB      41              0.0000000000
      4502        41  SAPC      H4Y            18.1851420570       19.6173769528       14.3325616780  MEMB      41              0.0000000000
      4503        41  SAPC      C35            20.3532489921       19.7684353635       14.6758730611  MEMB      41              0.0000000000
      4504        41  SAPC      H5X            20.4232215191       18.6618173900       14.7505800112  MEMB      41              0.0000000000
      4505        41  SAPC      H5Y            20.3021224679       20.1266371441       15.7296114803  MEMB      41              0.0000000000
      4506        41  SAPC      C36            21.6515810642       20.2686350273       14.0236957416  MEMB      41              0.0000000000
      4507        41  SAPC      H6X            22.5292089776       19.7148218222       14.4304654808  MEMB      41              0.0000000000
      4508        41  SAPC      H6Y            21.7891255300       21.3176376505       14.3373238809  MEMB      41              0.0000000000
      4509        41  SAPC      C37            21.7102612162       20.3768124061       12.5023323157  MEMB      41              0.0000000000
      4510        41  SAPC      H7X            22.5034872585       21.1296288019       12.3129898274  MEMB      41              0.0000000000
      4511        41  SAPC      H7Y            20.7776581292       20.7986370739       12.0731652776  MEMB      41              0.0000000000
      4512        41  SAPC      C38            22.0818110672       19.0914079160       11.7813760932  MEMB      41              0.0000000000
      4513        41  SAPC      H8X            21.3524111068       18.2931730915       12.0311606984  MEMB      41              0.0000000000
      4514        41  SAPC      H8Y            23.0811326195       18.7513252149       12.1234952268  MEMB      41              0.0000000000
      4515        41  SAPC      C39            22.0957446915       19.3351527366       10.2752619148  MEMB      41              0.0000000000
      4516        41  SAPC      H9X            23.0633217311       19.7995279501        9.9907480251  MEMB      41              0.0000000000
      4517        41  SAPC      H9Y            21.2951870914       20.0635051065       10.0060003059  MEMB      41              0.0000000000
      4518        41  SAPC      C310           21.8639738097       18.0721078754        9.4568226773  MEMB      41              0.0000000000
      4519        41  SAPC      H10X           20.8037556130       17.7478058753        9.5584542279  MEMB      41              0.0000000000
      4520        41  SAPC      H10Y           22.4986396863       17.2393999587        9.8285967174  MEMB      41              0.0000000000
      4521        41  SAPC      C311           22.1447390846       18.3532312382        7.9876762062  MEMB      41              0.0000000000
      4522        41  SAPC      H11X           23.1994602280       18.6800962948        7.8467101629  MEMB      41              0.0000000000
      4523        41  SAPC      H11Y           21.4870026887       19.1888492031        7.6540396643  MEMB      41              0.0000000000
      4524        41  SAPC      C312           21.8746147743       17.1399605361        7.1098114555  MEMB      41              0.0000000000
      4525        41  SAPC      H12X           20.8307514845       16.7941828624        7.2778936628  MEMB      41              0.0000000000
      4526        41  SAPC      H12Y           22.5335639738       16.3139765566        7.3985555787  MEMB      41              0.0000000000
      4527        41  SAPC      C313           22.0994619168       17.4891797612        5.6476211398  MEMB      41              0.0000000000
      4528        41  SAPC      H13X           23.1571892440       17.3323141412        5.3445295853  MEMB      41              0.0000000000
      4529        41  SAPC      H13Y           21.9043675578       18.5822208079        5.5910232456  MEMB      41              0.0000000000
      4530        41  SAPC      C314           21.1400722029       16.7491791820        4.7199129344  MEMB      41              0.0000000000
      4531        41  SAPC      H14X           20.1227228340       16.7610209789        5.1761460759  MEMB      41              0.0000000000
      4532        41  SAPC      H14Y           21.4432592187       15.6845794940        4.6064546139  MEMB      41              0.0000000000
      4533        41  SAPC      C315           21.0275306505       17.4211487696        3.3530396892  MEMB      41              0.0000000000
      4534        41  SAPC      H15X           20.1885570342       16.9310956819        2.8226200136  MEMB      41              0.0000000000
      4535        41  SAPC      H15Y           21.9392875410       17.2387754486        2.7505451286  MEMB      41              0.0000000000
      4536        41  SAPC      C316           20.7884480973       18.9348415438        3.4372844702  MEMB      41              0.0000000000
      4537        41  SAPC      H16X           21.7225651589       19.4511064907        3.7605486488  MEMB      41              0.0000000000
      4538        41  SAPC      H16Y           19.9978790962       19.1478269396        4.1923035846  MEMB      41              0.0000000000
      4539        41  SAPC      C317           20.3881581624       19.5431722713        2.1058019916  MEMB      41              0.0000000000
      4540        41  SAPC      H17X           21.2038529890       19.3677826494        1.3715240186  MEMB      41              0.0000000000
      4541        41  SAPC      H17Y           20.2685407104       20.6428182420        2.2506044852  MEMB      41              0.0000000000
      4542        41  SAPC      C318           19.1071794601       18.9866148685        1.5310026632  MEMB      41              0.0000000000
      4543        41  SAPC      H18X           18.8572422134       19.5321840452        0.6042927692  MEMB      41              0.0000000000
      4544        41  SAPC      H18Y           18.2804326778       19.0873364430        2.2621119290  MEMB      41              0.0000000000
      4545        41  SAPC      H18Z           19.1756969599       17.9238826792        1.2580413799  MEMB      41              0.0000000000
      4546        42  SLPC      N             -22.0003288123      -17.1780983291       18.7686240160  MEMB      42              0.0000000000
      4547        42  SLPC      C13           -20.8252236675      -16.3357733387       18.3531141386  MEMB      42              0.0000000000
      4548        42  SLPC      H13A          -20.8288107660      -16.1660182822       17.2761819516  MEMB      42              0.0000000000
      4549        42  SLPC      H13B          -20.8067525846      -15.3928241739       18.8762803158  MEMB      42              0.0000000000
      4550        42  SLPC      H13C          -19.8914900744      -16.8648238373       18.5658411168  MEMB      42              0.0000000000
      4551        42  SLPC      C14           -23.3198140182      -16.5387319199       18.4522262698  MEMB      42              0.0000000000
      4552        42  SLPC      H14A          -24.1536092062      -17.1155008921       18.8284957892  MEMB      42              0.0000000000
      4553        42  SLPC      H14B          -23.4008339310      -15.5367710490       18.8510206464  MEMB      42              0.0000000000
      4554        42  SLPC      H14C          -23.4169703317      -16.4366987777       17.3705915816  MEMB      42              0.0000000000
      4555        42  SLPC      C15           -21.8672245565      -17.3278403923       20.2334217434  MEMB      42              0.0000000000
      4556        42  SLPC      H15A          -22.5561309040      -18.0403758621       20.6757814990  MEMB      42              0.0000000000
      4557        42  SLPC      H15B          -20.8620307474      -17.6577031027       20.4919277917  MEMB      42              0.0000000000
      4558        42  SLPC      H15C          -22.0643633051      -16.3884095577       20.7274818656  MEMB      42              0.0000000000
      4559        42  SLPC      C12           -21.8893500339      -18.5066177168       18.0417130368  MEMB      42              0.0000000000
      4560        42  SLPC      H12A          -22.4263673355      -19.2560143549       18.6061002254  MEMB      42              0.0000000000
      4561        42  SLPC      H12B          -20.8347928247      -18.8165579304       18.0166900824  MEMB      42              0.0000000000
      4562        42  SLPC      C11           -22.3331247252      -18.5208939204       16.5490337937  MEMB      42              0.0000000000
      4563        42  SLPC      H11A          -23.3808295071      -18.1679428512       16.4393906281  MEMB      42              0.0000000000
      4564        42  SLPC      H11B          -22.3562431182      -19.5841515368       16.2060747396  MEMB      42              0.0000000000
      4565        42  SLPC      P             -20.0597096925      -18.3448515412       15.2827230464  MEMB      42              0.0000000000
      4566        42  SLPC      O13           -19.1360330058      -17.2827361907       14.8550304763  MEMB      42              0.0000000000
      4567        42  SLPC      O14           -19.6753238402      -19.2287506389       16.4113490668  MEMB      42              0.0000000000
      4568        42  SLPC      O12           -21.4672216866      -17.7056958305       15.7320030545  MEMB      42              0.0000000000
      4569        42  SLPC      O11           -20.5241249101      -19.1895362561       14.0089363720  MEMB      42              0.0000000000
      4570        42  SLPC      C1            -21.7826251908      -18.9330603400       13.3590510093  MEMB      42              0.0000000000
      4571        42  SLPC      HA            -22.5527169501      -19.5999643019       13.8061731381  MEMB      42              0.0000000000
      4572        42  SLPC      HB            -22.1357056736      -17.8840858968       13.4931861507  MEMB      42              0.0000000000
      4573        42  SLPC      C2            -21.6954878802      -19.1753432487       11.8186301445  MEMB      42              0.0000000000
      4574        42  SLPC      HS            -22.7183525164      -19.1901868249       11.3895218065  MEMB      42              0.0000000000
      4575        42  SLPC      O21           -21.0505997320      -20.4485826463       11.6155731099  MEMB      42              0.0000000000
      4576        42  SLPC      C21           -21.5189820819      -21.5313676042       12.2181284886  MEMB      42              0.0000000000
      4577        42  SLPC      O22           -22.6769165446      -21.6817670594       12.5789285698  MEMB      42              0.0000000000
      4578        42  SLPC      C22           -20.3970906423      -22.5904248177       12.4798584268  MEMB      42              0.0000000000
      4579        42  SLPC      H2R           -19.6010529376      -22.0500622250       13.0183079011  MEMB      42              0.0000000000
      4580        42  SLPC      H2S           -20.8443231634      -23.2559374926       13.2298632705  MEMB      42              0.0000000000
      4581        42  SLPC      C3            -20.8715089490      -17.9569341805       11.1730673964  MEMB      42              0.0000000000
      4582        42  SLPC      HX            -19.8688011503      -18.1478279259       11.6353260931  MEMB      42              0.0000000000
      4583        42  SLPC      HY            -21.2615408429      -17.0121524678       11.6145963523  MEMB      42              0.0000000000
      4584        42  SLPC      O31           -20.7606958876      -17.8130328820        9.6938875616  MEMB      42              0.0000000000
      4585        42  SLPC      C31           -19.5835640962      -17.1423375183        9.4063644853  MEMB      42              0.0000000000
      4586        42  SLPC      O32           -19.0421997947      -16.4530096145       10.2473106843  MEMB      42              0.0000000000
      4587        42  SLPC      C32           -18.9442971548      -17.2857841932        7.9631633588  MEMB      42              0.0000000000
      4588        42  SLPC      H2X           -18.8942644983      -16.2115125166        7.6538387768  MEMB      42              0.0000000000
      4589        42  SLPC      H2Y           -19.5784896836      -17.7217704756        7.1980592529  MEMB      42              0.0000000000
      4590        42  SLPC      C23           -19.7064300813      -23.5155831331       11.4009626334  MEMB      42              0.0000000000
      4591        42  SLPC      H3R           -19.2577948092      -24.3611976517       11.9717982398  MEMB      42              0.0000000000
      4592        42  SLPC      H3S           -18.7962663390      -23.0455205823       10.9805320438  MEMB      42              0.0000000000
      4593        42  SLPC      C24           -20.5218711333      -24.1995222977       10.2785490696  MEMB      42              0.0000000000
      4594        42  SLPC      H4R           -20.6980334605      -25.2572950242       10.5773931234  MEMB      42              0.0000000000
      4595        42  SLPC      H4S           -19.8623336671      -24.2580335493        9.3793507252  MEMB      42              0.0000000000
      4596        42  SLPC      C25           -21.8703087317      -23.5790632340        9.8629544124  MEMB      42              0.0000000000
      4597        42  SLPC      H5R           -21.8306367155      -22.4745004790        9.9034209710  MEMB      42              0.0000000000
      4598        42  SLPC      H5S           -22.6535067488      -23.9252233160       10.5706665483  MEMB      42              0.0000000000
      4599        42  SLPC      C26           -22.2611594597      -23.9584460390        8.4241936016  MEMB      42              0.0000000000
      4600        42  SLPC      H6R           -22.3358268582      -25.0693589272        8.4010858689  MEMB      42              0.0000000000
      4601        42  SLPC      H6S           -21.4245228388      -23.6608209812        7.7587923511  MEMB      42              0.0000000000
      4602        42  SLPC      C27           -23.6034699987      -23.3848682330        7.9004251941  MEMB      42              0.0000000000
      4603        42  SLPC      H7R           -24.2998268779      -23.2727097073        8.7614699548  MEMB      42              0.0000000000
      4604        42  SLPC      H7S           -24.0439909827      -24.1465872772        7.2162462309  MEMB      42              0.0000000000
      4605        42  SLPC      C28           -23.5365443888      -22.0544826235        7.1036241165  MEMB      42              0.0000000000
      4606        42  SLPC      H8R           -23.0174775039      -21.3034889032        7.7457780086  MEMB      42              0.0000000000
      4607        42  SLPC      H8S           -24.5648646771      -21.6657486582        6.9442956026  MEMB      42              0.0000000000
      4608        42  SLPC      C29           -22.8063233691      -22.1982429709        5.7861341136  MEMB      42              0.0000000000
      4609        42  SLPC      H9R           -21.8429140315      -22.7200818726        5.8998641551  MEMB      42              0.0000000000
      4610        42  SLPC      C210          -23.0943117529      -21.7778365490        4.5368500142  MEMB      42              0.0000000000
      4611        42  SLPC      H10R          -22.3196109848      -21.9670629986        3.7837036238  MEMB      42              0.0000000000
      4612        42  SLPC      C211          -24.2453427932      -21.0075209738        3.9357303901  MEMB      42              0.0000000000
      4613        42  SLPC      H11R          -25.1213827935      -21.6922336767        3.9063724314  MEMB      42              0.0000000000
      4614        42  SLPC      H11S          -23.9857333936      -20.8656012950        2.8633360163  MEMB      42              0.0000000000
      4615        42  SLPC      C212          -24.7241073385      -19.6591592134        4.4207178173  MEMB      42              0.0000000000
      4616        42  SLPC      H12R          -25.7133344532      -19.7041942645        4.8783712991  MEMB      42              0.0000000000
      4617        42  SLPC      C213          -24.1499469098      -18.4408127233        4.3517961912  MEMB      42              0.0000000000
      4618        42  SLPC      H13R          -24.7292724571      -17.5825303552        4.7269757333  MEMB      42              0.0000000000
      4619        42  SLPC      C214          -22.8185898166      -18.0446315337        3.7634433298  MEMB      42              0.0000000000
      4620        42  SLPC      H14R          -22.9407272758      -17.6749383257        2.7241415606  MEMB      42              0.0000000000
      4621        42  SLPC      H14S          -22.1443710767      -18.9211221890        3.7191360348  MEMB      42              0.0000000000
      4622        42  SLPC      C215          -22.2164367299      -16.9011475375        4.6160722017  MEMB      42              0.0000000000
      4623        42  SLPC      H15R          -22.1437199787      -17.2648477984        5.6713727965  MEMB      42              0.0000000000
      4624        42  SLPC      H15S          -22.9274001092      -16.0628754640        4.6169979365  MEMB      42              0.0000000000
      4625        42  SLPC      C216          -20.8065305221      -16.3809377804        4.2458394023  MEMB      42              0.0000000000
      4626        42  SLPC      H16R          -20.2221156499      -17.2963392017        4.1924342826  MEMB      42              0.0000000000
      4627        42  SLPC      H16S          -20.4125842692      -15.7449422278        5.0715879730  MEMB      42              0.0000000000
      4628        42  SLPC      C217          -20.5108922154      -15.6931961768        2.9008140889  MEMB      42              0.0000000000
      4629        42  SLPC      H17R          -20.9545746790      -14.6841450296        2.8888534103  MEMB      42              0.0000000000
      4630        42  SLPC      H17S          -20.9757443940      -16.2843710925        2.0823877133  MEMB      42              0.0000000000
      4631        42  SLPC      C218          -19.0032389111      -15.5683774664        2.6075294042  MEMB      42              0.0000000000
      4632        42  SLPC      H18R          -18.7851697164      -15.0061910906        1.6769969131  MEMB      42              0.0000000000
      4633        42  SLPC      H18S          -18.6153691578      -16.5602515542        2.3964598485  MEMB      42              0.0000000000
      4634        42  SLPC      H18T          -18.4203467399      -15.1395167633        3.4511300330  MEMB      42              0.0000000000
      4635        42  SLPC      C33           -17.4229490617      -17.7563621851        7.9799910220  MEMB      42              0.0000000000
      4636        42  SLPC      H3X           -17.1512871621      -17.9585067882        9.0385112466  MEMB      42              0.0000000000
      4637        42  SLPC      H3Y           -16.9284743852      -16.7898287209        7.7029821248  MEMB      42              0.0000000000
      4638        42  SLPC      C34           -16.5399986931      -18.7662510209        7.0932647604  MEMB      42              0.0000000000
      4639        42  SLPC      H4X           -15.6284959206      -18.7633830143        7.7341019809  MEMB      42              0.0000000000
      4640        42  SLPC      H4Y           -16.2733595882      -18.2689533346        6.1425538076  MEMB      42              0.0000000000
      4641        42  SLPC      C35           -16.7251095605      -20.3259823961        6.8625692619  MEMB      42              0.0000000000
      4642        42  SLPC      H5X           -17.7334240807      -20.3969019036        6.4659655503  MEMB      42              0.0000000000
      4643        42  SLPC      H5Y           -16.7004279123      -20.8631083956        7.8131666404  MEMB      42              0.0000000000
      4644        42  SLPC      C36           -16.2867868158      -21.2313827664        5.6662626079  MEMB      42              0.0000000000
      4645        42  SLPC      H6X           -15.2253975057      -21.4258409599        5.5422055846  MEMB      42              0.0000000000
      4646        42  SLPC      H6Y           -16.5250080908      -20.7584259341        4.7179619131  MEMB      42              0.0000000000
      4647        42  SLPC      C37           -17.0652782059      -22.5882698596        5.6808017810  MEMB      42              0.0000000000
      4648        42  SLPC      H7X           -17.2022558394      -22.8999111746        6.7380492633  MEMB      42              0.0000000000
      4649        42  SLPC      H7Y           -16.4580692222      -23.3424224526        5.1640175452  MEMB      42              0.0000000000
      4650        42  SLPC      C38           -18.4130502262      -22.5819795688        4.9321656908  MEMB      42              0.0000000000
      4651        42  SLPC      H8X           -18.3009196627      -21.7493731675        4.2326345412  MEMB      42              0.0000000000
      4652        42  SLPC      H8Y           -19.2162934984      -22.3197157588        5.6418284164  MEMB      42              0.0000000000
      4653        42  SLPC      C39           -18.8388007327      -23.7895533605        4.0631272379  MEMB      42              0.0000000000
      4654        42  SLPC      H9X           -18.9922479725      -24.6678849284        4.7246739506  MEMB      42              0.0000000000
      4655        42  SLPC      H9Y           -17.9996802991      -24.0149203455        3.3686718828  MEMB      42              0.0000000000
      4656        42  SLPC      C310          -20.0883482296      -23.5525489971        3.1554352538  MEMB      42              0.0000000000
      4657        42  SLPC      H10X          -21.0089757820      -23.6985356183        3.7563295826  MEMB      42              0.0000000000
      4658        42  SLPC      H10Y          -20.0875909640      -24.3224014945        2.3506668254  MEMB      42              0.0000000000
      4659        42  SLPC      C311          -20.0654289975      -22.1498750720        2.5092792157  MEMB      42              0.0000000000
      4660        42  SLPC      H11X          -19.0186773178      -22.0298037622        2.1608085729  MEMB      42              0.0000000000
      4661        42  SLPC      H11Y          -20.3085802130      -21.3789139324        3.2536051743  MEMB      42              0.0000000000
      4662        42  SLPC      C312          -20.9016321490      -21.7818432098        1.2757824637  MEMB      42              0.0000000000
      4663        42  SLPC      H12X          -21.9937931076      -21.8211224670        1.4539506986  MEMB      42              0.0000000000
      4664        42  SLPC      H12Y          -20.6268462634      -22.5692111980        0.5535773086  MEMB      42              0.0000000000
      4665        42  SLPC      C313          -20.4796186079      -20.3751700306        0.7457956298  MEMB      42              0.0000000000
      4666        42  SLPC      H13X          -20.0082242569      -20.3765550005       -0.2523730791  MEMB      42              0.0000000000
      4667        42  SLPC      H13Y          -19.6105141754      -20.1397138427        1.3761723559  MEMB      42              0.0000000000
      4668        42  SLPC      C314          -21.5100372884      -19.2301004655        0.9276841972  MEMB      42              0.0000000000
      4669        42  SLPC      H14X          -21.1301840450      -18.5809295645        1.7456634918  MEMB      42              0.0000000000
      4670        42  SLPC      H14Y          -22.4617653338      -19.6695262631        1.2936221866  MEMB      42              0.0000000000
      4671        42  SLPC      C315          -21.8770758014      -18.2665096828       -0.2374448923  MEMB      42              0.0000000000
      4672        42  SLPC      H15X          -22.3626675341      -17.3730325362        0.2287615441  MEMB      42              0.0000000000
      4673        42  SLPC      H15Y          -22.6460693860      -18.7397754263       -0.8836050125  MEMB      42              0.0000000000
      4674        42  SLPC      C316          -20.7398121511      -17.7315778749       -1.1263904022  MEMB      42              0.0000000000
      4675        42  SLPC      H16X          -21.1595986638      -17.0061034086       -1.8630710329  MEMB      42              0.0000000000
      4676        42  SLPC      H16Y          -20.3141234696      -18.5762351481       -1.7081876389  MEMB      42              0.0000000000
      4677        42  SLPC      C317          -19.6283122413      -17.0278133336       -0.3419654978  MEMB      42              0.0000000000
      4678        42  SLPC      H17X          -19.6189534098      -17.4267183770        0.6913104982  MEMB      42              0.0000000000
      4679        42  SLPC      H17Y          -19.8649046177      -15.9459981992       -0.2609101655  MEMB      42              0.0000000000
      4680        42  SLPC      C318          -18.2283677897      -17.2104860090       -0.9201268147  MEMB      42              0.0000000000
      4681        42  SLPC      H18X          -17.4606223661      -16.8282546938       -0.2105371399  MEMB      42              0.0000000000
      4682        42  SLPC      H18Y          -18.1274568994      -16.6722648396       -1.8838328824  MEMB      42              0.0000000000
      4683        42  SLPC      H18Z          -18.0276863521      -18.2848476175       -1.1098863940  MEMB      42              0.0000000000
      4684        43  CHL1      C3             14.3843436581      -24.1672933548       17.6524121531  MEMB      43              0.0000000000
      4685        43  CHL1      H3             15.3595418092      -23.6332312883       17.7554018884  MEMB      43              0.0000000000
      4686        43  CHL1      O3             13.7820195939      -24.3701525378       18.9245957314  MEMB      43              0.0000000000
      4687        43  CHL1      H3'            13.0902834674      -25.0230424505       18.7679866946  MEMB      43              0.0000000000
      4688        43  CHL1      C4             13.4365731569      -23.3267450245       16.7707173748  MEMB      43              0.0000000000
      4689        43  CHL1      H4A            12.4442508275      -23.7690558409       16.9566111391  MEMB      43              0.0000000000
      4690        43  CHL1      H4B            13.4099789063      -22.2910858719       17.1756634172  MEMB      43              0.0000000000
      4691        43  CHL1      C5             13.6702255089      -23.3099493958       15.2723854634  MEMB      43              0.0000000000
      4692        43  CHL1      C6             13.6131670187      -22.1806003001       14.5307525911  MEMB      43              0.0000000000
      4693        43  CHL1      H6             13.3462228022      -21.2242244142       15.0054240022  MEMB      43              0.0000000000
      4694        43  CHL1      C7             13.7742846018      -22.1511591217       13.0298440430  MEMB      43              0.0000000000
      4695        43  CHL1      H7A            12.9272036780      -21.6114029454       12.5450531751  MEMB      43              0.0000000000
      4696        43  CHL1      H7B            14.7075513137      -21.6190649534       12.7422240019  MEMB      43              0.0000000000
      4697        43  CHL1      C8             13.8096822595      -23.5875948560       12.4402571119  MEMB      43              0.0000000000
      4698        43  CHL1      H8             12.7548931501      -23.9328397525       12.4131838454  MEMB      43              0.0000000000
      4699        43  CHL1      C14            14.3294190689      -23.5915741197       11.0375255577  MEMB      43              0.0000000000
      4700        43  CHL1      H14            15.3807666328      -23.2054845567       11.0609113430  MEMB      43              0.0000000000
      4701        43  CHL1      C15            13.5582129398      -22.7044726981       10.0536453608  MEMB      43              0.0000000000
      4702        43  CHL1      H15A           12.4688599094      -22.8936353996       10.1731796016  MEMB      43              0.0000000000
      4703        43  CHL1      H15B           13.7645217643      -21.6266653580       10.1983131417  MEMB      43              0.0000000000
      4704        43  CHL1      C16            14.0310786287      -23.2229288233        8.7049216760  MEMB      43              0.0000000000
      4705        43  CHL1      H16A           13.1618846641      -23.3478512604        8.0242601758  MEMB      43              0.0000000000
      4706        43  CHL1      H16B           14.7601992307      -22.5250675284        8.2417689055  MEMB      43              0.0000000000
      4707        43  CHL1      C17            14.7422451788      -24.5873410799        8.9887180276  MEMB      43              0.0000000000
      4708        43  CHL1      H17            15.8378302599      -24.3634413642        9.0383314003  MEMB      43              0.0000000000
      4709        43  CHL1      C13            14.3966066079      -24.9811700144       10.4150228034  MEMB      43              0.0000000000
      4710        43  CHL1      C18            13.0272625767      -25.6862413303       10.5020237350  MEMB      43              0.0000000000
      4711        43  CHL1      H18A           13.0957392252      -26.7052693672       10.0738082679  MEMB      43              0.0000000000
      4712        43  CHL1      H18B           12.7061826451      -25.8342267150       11.5520487953  MEMB      43              0.0000000000
      4713        43  CHL1      H18C           12.2289092067      -25.1125665806        9.9998979881  MEMB      43              0.0000000000
      4714        43  CHL1      C12            15.4525758114      -25.8031736761       11.1519578206  MEMB      43              0.0000000000
      4715        43  CHL1      H12A           15.4724863513      -26.8358200645       10.7495164018  MEMB      43              0.0000000000
      4716        43  CHL1      H12B           16.4660044984      -25.3664982081       11.0378580900  MEMB      43              0.0000000000
      4717        43  CHL1      C11            15.0504583019      -25.8855627175       12.6225390653  MEMB      43              0.0000000000
      4718        43  CHL1      H11A           14.2108561537      -26.6011488715       12.6521843997  MEMB      43              0.0000000000
      4719        43  CHL1      H11B           15.8637927101      -26.3597475778       13.1895104691  MEMB      43              0.0000000000
      4720        43  CHL1      C9             14.6684045914      -24.5229568147       13.2860106859  MEMB      43              0.0000000000
      4721        43  CHL1      H9             15.6466433339      -23.9907636533       13.4055428374  MEMB      43              0.0000000000
      4722        43  CHL1      C10            14.0514131395      -24.6808686038       14.6839739495  MEMB      43              0.0000000000
      4723        43  CHL1      C19            12.7392307433      -25.5099486464       14.5680964430  MEMB      43              0.0000000000
      4724        43  CHL1      H19A           11.9676894106      -24.9645913703       13.9902636020  MEMB      43              0.0000000000
      4725        43  CHL1      H19B           12.8862618780      -26.4713469593       14.0587286084  MEMB      43              0.0000000000
      4726        43  CHL1      H19C           12.3066672523      -25.7532702176       15.5543375163  MEMB      43              0.0000000000
      4727        43  CHL1      C1             15.0884288866      -25.3875207894       15.5961343664  MEMB      43              0.0000000000
      4728        43  CHL1      H1A            15.3177236155      -26.3945558417       15.1970930020  MEMB      43              0.0000000000
      4729        43  CHL1      H1B            16.0299195624      -24.7913639613       15.5691235746  MEMB      43              0.0000000000
      4730        43  CHL1      C2             14.6222582787      -25.5463436701       17.0428989433  MEMB      43              0.0000000000
      4731        43  CHL1      H2A            15.3834913367      -26.1018822855       17.6281252994  MEMB      43              0.0000000000
      4732        43  CHL1      H2B            13.6860062436      -26.1473400254       17.0555309027  MEMB      43              0.0000000000
      4733        43  CHL1      C20            14.5535891162      -25.5338830308        7.8215777192  MEMB      43              0.0000000000
      4734        43  CHL1      H20            13.4681528382      -25.6101141524        7.5784746721  MEMB      43              0.0000000000
      4735        43  CHL1      C21            15.0785226024      -26.9657864529        8.0303523503  MEMB      43              0.0000000000
      4736        43  CHL1      H21A           16.1845203087      -26.9599341993        8.0805839719  MEMB      43              0.0000000000
      4737        43  CHL1      H21B           14.7719491483      -27.6139826587        7.1817859570  MEMB      43              0.0000000000
      4738        43  CHL1      H21C           14.6626083335      -27.4352104972        8.9392082349  MEMB      43              0.0000000000
      4739        43  CHL1      C22            15.3022631070      -24.8668893525        6.6619949630  MEMB      43              0.0000000000
      4740        43  CHL1      H22A           14.7870046124      -23.9220078181        6.3725269639  MEMB      43              0.0000000000
      4741        43  CHL1      H22B           16.3419050258      -24.6036522933        6.9698420896  MEMB      43              0.0000000000
      4742        43  CHL1      C23            15.4219098389      -25.7336691443        5.4400707704  MEMB      43              0.0000000000
      4743        43  CHL1      H23A           16.2350663782      -26.4825517983        5.5629853973  MEMB      43              0.0000000000
      4744        43  CHL1      H23B           14.4652325637      -26.2605481424        5.2725858471  MEMB      43              0.0000000000
      4745        43  CHL1      C24            15.6896966072      -24.8282667586        4.2699403474  MEMB      43              0.0000000000
      4746        43  CHL1      H24A           14.7981683970      -24.1759778607        4.1131451639  MEMB      43              0.0000000000
      4747        43  CHL1      H24B           16.5596712812      -24.1657390671        4.4859727221  MEMB      43              0.0000000000
      4748        43  CHL1      C25            15.9785433108      -25.5823216895        2.9913153492  MEMB      43              0.0000000000
      4749        43  CHL1      H25            16.9932262056      -26.0200091807        3.0745344308  MEMB      43              0.0000000000
      4750        43  CHL1      C26            15.0389243991      -26.7878474766        2.7619319427  MEMB      43              0.0000000000
      4751        43  CHL1      H26A           15.3838366821      -27.4032506362        1.9094687439  MEMB      43              0.0000000000
      4752        43  CHL1      H26B           15.0505363573      -27.4747874993        3.6326738225  MEMB      43              0.0000000000
      4753        43  CHL1      H26C           13.9912079524      -26.4750070881        2.6002028646  MEMB      43              0.0000000000
      4754        43  CHL1      C27            15.9799817893      -24.4742149842        1.9375795454  MEMB      43              0.0000000000
      4755        43  CHL1      H27A           16.0441701196      -24.8634070415        0.9203376681  MEMB      43              0.0000000000
      4756        43  CHL1      H27B           15.0491098744      -23.8747548665        1.9964641399  MEMB      43              0.0000000000
      4757        43  CHL1      H27C           16.8346596999      -23.7860431753        2.1120438236  MEMB      43              0.0000000000
      4758        44  CHL1      C3             22.7611369694      -15.2405629512       17.3438220382  MEMB      44              0.0000000000
      4759        44  CHL1      H3             21.6634102029      -15.3669226190       17.4945020755  MEMB      44              0.0000000000
      4760        44  CHL1      O3             23.4195355505      -15.3805385725       18.6022344583  MEMB      44              0.0000000000
      4761        44  CHL1      H3'            23.2860569265      -14.5378083292       19.0762924573  MEMB      44              0.0000000000
      4762        44  CHL1      C4             23.2644912724      -16.3705588701       16.4205169764  MEMB      44              0.0000000000
      4763        44  CHL1      H4A            24.3669026899      -16.4539874545       16.5364913793  MEMB      44              0.0000000000
      4764        44  CHL1      H4B            22.8671857709      -17.3294248575       16.8265509017  MEMB      44              0.0000000000
      4765        44  CHL1      C5             22.9369950921      -16.2056126196       14.9480138973  MEMB      44              0.0000000000
      4766        44  CHL1      C6             22.3294642780      -17.1854196337       14.2494123572  MEMB      44              0.0000000000
      4767        44  CHL1      H6             22.0696637012      -18.1231561948       14.7614158673  MEMB      44              0.0000000000
      4768        44  CHL1      C7             22.1072548514      -17.1652606606       12.7609178021  MEMB      44              0.0000000000
      4769        44  CHL1      H7A            22.3754697425      -18.1552906659       12.3259873803  MEMB      44              0.0000000000
      4770        44  CHL1      H7B            21.0489746986      -16.9509129504       12.4921014827  MEMB      44              0.0000000000
      4771        44  CHL1      C8             23.0247081795      -16.1103272689       12.1072745531  MEMB      44              0.0000000000
      4772        44  CHL1      H8             24.0503855989      -16.5155206861       12.1966110577  MEMB      44              0.0000000000
      4773        44  CHL1      C14            22.7137372755      -15.9479701994       10.6243801163  MEMB      44              0.0000000000
      4774        44  CHL1      H14            21.6921457412      -15.4962050928       10.5557740221  MEMB      44              0.0000000000
      4775        44  CHL1      C15            22.6394741439      -17.2155543275        9.7732886908  MEMB      44              0.0000000000
      4776        44  CHL1      H15A           23.5584250970      -17.8183235329        9.9478972650  MEMB      44              0.0000000000
      4777        44  CHL1      H15B           21.7431093988      -17.8298952267        9.9852205156  MEMB      44              0.0000000000
      4778        44  CHL1      C16            22.6584678403      -16.6828861561        8.3410655807  MEMB      44              0.0000000000
      4779        44  CHL1      H16A           23.2455618569      -17.3850851440        7.7179973641  MEMB      44              0.0000000000
      4780        44  CHL1      H16B           21.6283150131      -16.6026517943        7.9318456199  MEMB      44              0.0000000000
      4781        44  CHL1      C17            23.2985908457      -15.2613639832        8.3915503543  MEMB      44              0.0000000000
      4782        44  CHL1      H17            22.4826525922      -14.5367977437        8.1558228572  MEMB      44              0.0000000000
      4783        44  CHL1      C13            23.6722648595      -15.0147091381        9.8864724901  MEMB      44              0.0000000000
      4784        44  CHL1      C18            25.1307098783      -15.4518034092       10.1408565189  MEMB      44              0.0000000000
      4785        44  CHL1      H18A           25.2598624348      -16.5195823559        9.8971628444  MEMB      44              0.0000000000
      4786        44  CHL1      H18B           25.8840113177      -14.8630323406        9.5905762325  MEMB      44              0.0000000000
      4787        44  CHL1      H18C           25.3967456068      -15.3361219090       11.2059478552  MEMB      44              0.0000000000
      4788        44  CHL1      C12            23.3912365964      -13.6349498471       10.5029154529  MEMB      44              0.0000000000
      4789        44  CHL1      H12A           23.9763667098      -12.8479328636        9.9905031789  MEMB      44              0.0000000000
      4790        44  CHL1      H12B           22.3196320465      -13.4346934593       10.3324956983  MEMB      44              0.0000000000
      4791        44  CHL1      C11            23.6687429113      -13.6331720399       12.0333023674  MEMB      44              0.0000000000
      4792        44  CHL1      H11A           24.7673785023      -13.6565755970       12.1254333383  MEMB      44              0.0000000000
      4793        44  CHL1      H11B           23.3948924685      -12.7088876516       12.5563449058  MEMB      44              0.0000000000
      4794        44  CHL1      C9             22.9420066827      -14.7562520525       12.8353360700  MEMB      44              0.0000000000
      4795        44  CHL1      H9             21.8562447671      -14.4959230392       12.8095347753  MEMB      44              0.0000000000
      4796        44  CHL1      C10            23.3182295990      -14.8291631722       14.3555486194  MEMB      44              0.0000000000
      4797        44  CHL1      C19            24.8192616867      -14.4668760207       14.5188277489  MEMB      44              0.0000000000
      4798        44  CHL1      H19A           25.2617939051      -14.9422324465       15.4151030268  MEMB      44              0.0000000000
      4799        44  CHL1      H19B           25.4419150324      -14.7666663367       13.6587878331  MEMB      44              0.0000000000
      4800        44  CHL1      H19C           24.9303824001      -13.3673369563       14.6522410662  MEMB      44              0.0000000000
      4801        44  CHL1      C1             22.5350621510      -13.8076515392       15.2471132257  MEMB      44              0.0000000000
      4802        44  CHL1      H1A            22.6766774668      -12.7781864078       14.8524598159  MEMB      44              0.0000000000
      4803        44  CHL1      H1B            21.4462296432      -14.0268853509       15.2077892671  MEMB      44              0.0000000000
      4804        44  CHL1      C2             22.9899204502      -13.8388654944       16.7325253261  MEMB      44              0.0000000000
      4805        44  CHL1      H2A            22.4357304666      -13.0611532649       17.3000450693  MEMB      44              0.0000000000
      4806        44  CHL1      H2B            24.0678794087      -13.5795382913       16.8169456341  MEMB      44              0.0000000000
      4807        44  CHL1      C20            24.3699960230      -15.1007494649        7.2880291357  MEMB      44              0.0000000000
      4808        44  CHL1      H20            25.2076866842      -15.7917770429        7.4928925741  MEMB      44              0.0000000000
      4809        44  CHL1      C21            24.9243391973      -13.6794613705        7.3557909644  MEMB      44              0.0000000000
      4810        44  CHL1      H21A           25.5927169862      -13.4453984093        6.5036143024  MEMB      44              0.0000000000
      4811        44  CHL1      H21B           25.4639350789      -13.4573458013        8.2923101196  MEMB      44              0.0000000000
      4812        44  CHL1      H21C           24.0604249108      -13.0113736743        7.3695854901  MEMB      44              0.0000000000
      4813        44  CHL1      C22            23.8053582384      -15.4579804412        5.8707469256  MEMB      44              0.0000000000
      4814        44  CHL1      H22A           23.5549556045      -16.5405569439        5.8601460276  MEMB      44              0.0000000000
      4815        44  CHL1      H22B           22.8587966451      -14.8972251264        5.7105988134  MEMB      44              0.0000000000
      4816        44  CHL1      C23            24.6879291652      -15.2536452934        4.6139169693  MEMB      44              0.0000000000
      4817        44  CHL1      H23A           24.6641706532      -14.1744926982        4.3462506315  MEMB      44              0.0000000000
      4818        44  CHL1      H23B           25.7470343642      -15.5126190071        4.8027494192  MEMB      44              0.0000000000
      4819        44  CHL1      C24            24.1507815451      -16.1184706766        3.4386173369  MEMB      44              0.0000000000
      4820        44  CHL1      H24A           24.3333362217      -17.1950115424        3.6232499579  MEMB      44              0.0000000000
      4821        44  CHL1      H24B           23.0448621439      -15.9796820952        3.4154048758  MEMB      44              0.0000000000
      4822        44  CHL1      C25            24.6729815107      -15.7478911197        2.0321447191  MEMB      44              0.0000000000
      4823        44  CHL1      H25            24.9125571467      -14.6662675296        2.0937537373  MEMB      44              0.0000000000
      4824        44  CHL1      C26            25.9626942009      -16.4520799100        1.6074317551  MEMB      44              0.0000000000
      4825        44  CHL1      H26A           25.8109387860      -17.5453571758        1.5167128110  MEMB      44              0.0000000000
      4826        44  CHL1      H26B           26.2780988602      -16.0894575949        0.6070318296  MEMB      44              0.0000000000
      4827        44  CHL1      H26C           26.7712335707      -16.2324202184        2.3349290421  MEMB      44              0.0000000000
      4828        44  CHL1      C27            23.6045064645      -15.9799115277        0.9512393095  MEMB      44              0.0000000000
      4829        44  CHL1      H27A           23.3265275630      -17.0518570404        0.9208865351  MEMB      44              0.0000000000
      4830        44  CHL1      H27B           22.6818005289      -15.3989251116        1.1416851065  MEMB      44              0.0000000000
      4831        44  CHL1      H27C           23.9815987807      -15.6781009085       -0.0501206190  MEMB      44              0.0000000000
      4832        45  CHL1      C3             28.3740304705       -0.3013430284       17.5354016386  MEMB      45              0.0000000000
      4833        45  CHL1      H3             28.3758036847        0.7701162658       17.2142474507  MEMB      45              0.0000000000
      4834        45  CHL1      O3             28.3230655704       -0.3721823187       18.9417916153  MEMB      45              0.0000000000
      4835        45  CHL1      H3'            29.2470773235       -0.4474829700       19.1966643975  MEMB      45              0.0000000000
      4836        45  CHL1      C4             27.1375544469       -1.0157866854       17.0074380814  MEMB      45              0.0000000000
      4837        45  CHL1      H4A            27.1458300066       -2.0710226196       17.3452632154  MEMB      45              0.0000000000
      4838        45  CHL1      H4B            26.2308410399       -0.5415816100       17.4453985141  MEMB      45              0.0000000000
      4839        45  CHL1      C5             27.1488160484       -0.9573908115       15.5086168981  MEMB      45              0.0000000000
      4840        45  CHL1      C6             26.1503161669       -0.3504644549       14.8625160303  MEMB      45              0.0000000000
      4841        45  CHL1      H6             25.3134273942        0.0821598918       15.4280635679  MEMB      45              0.0000000000
      4842        45  CHL1      C7             26.0608768677       -0.3066881521       13.3802606495  MEMB      45              0.0000000000
      4843        45  CHL1      H7A            25.0400647809       -0.6074978333       13.0583279197  MEMB      45              0.0000000000
      4844        45  CHL1      H7B            26.2341614122        0.7310806631       13.0196460141  MEMB      45              0.0000000000
      4845        45  CHL1      C8             27.0762594055       -1.2653203230       12.7087187168  MEMB      45              0.0000000000
      4846        45  CHL1      H8             26.6580199669       -2.2955889142       12.7513075813  MEMB      45              0.0000000000
      4847        45  CHL1      C14            27.2505398635       -0.8220512123       11.2957352066  MEMB      45              0.0000000000
      4848        45  CHL1      H14            27.7462136730        0.1845151208       11.3322900554  MEMB      45              0.0000000000
      4849        45  CHL1      C15            25.9546008504       -0.6241762208       10.5198834542  MEMB      45              0.0000000000
      4850        45  CHL1      H15A           25.4119367539       -1.5784392535       10.6490810844  MEMB      45              0.0000000000
      4851        45  CHL1      H15B           25.3239331518        0.2216954600       10.8523538911  MEMB      45              0.0000000000
      4852        45  CHL1      C16            26.4578392510       -0.4699398808        9.1017610519  MEMB      45              0.0000000000
      4853        45  CHL1      H16A           25.8525868360       -1.1088442342        8.4221092596  MEMB      45              0.0000000000
      4854        45  CHL1      H16B           26.3903326955        0.5886876761        8.7746207405  MEMB      45              0.0000000000
      4855        45  CHL1      C17            27.9578761171       -0.9281362172        9.1377292556  MEMB      45              0.0000000000
      4856        45  CHL1      H17            28.5792441634       -0.0043122392        9.2447239394  MEMB      45              0.0000000000
      4857        45  CHL1      C13            28.1360673397       -1.7086792214       10.4334053710  MEMB      45              0.0000000000
      4858        45  CHL1      C18            27.5504399114       -3.1367199854       10.2575669075  MEMB      45              0.0000000000
      4859        45  CHL1      H18A           26.5840453401       -3.1181565775        9.7178275663  MEMB      45              0.0000000000
      4860        45  CHL1      H18B           28.2474817091       -3.7736092500        9.6768689526  MEMB      45              0.0000000000
      4861        45  CHL1      H18C           27.3925466896       -3.6299490494       11.2350785685  MEMB      45              0.0000000000
      4862        45  CHL1      C12            29.5435412854       -1.7492370658       11.0487316195  MEMB      45              0.0000000000
      4863        45  CHL1      H12A           30.1692957605       -2.5044829018       10.5313481898  MEMB      45              0.0000000000
      4864        45  CHL1      H12B           30.0292054142       -0.7563505876       10.9435894455  MEMB      45              0.0000000000
      4865        45  CHL1      C11            29.4654548027       -2.1257204789       12.5348916890  MEMB      45              0.0000000000
      4866        45  CHL1      H11A           29.1334670793       -3.1834416707       12.5638402738  MEMB      45              0.0000000000
      4867        45  CHL1      H11B           30.4807460740       -2.0583122734       12.9753742171  MEMB      45              0.0000000000
      4868        45  CHL1      C9             28.4602457429       -1.2544367567       13.3417819541  MEMB      45              0.0000000000
      4869        45  CHL1      H9             28.8317947097       -0.2043927518       13.2406542333  MEMB      45              0.0000000000
      4870        45  CHL1      C10            28.4051505278       -1.5596401306       14.8461861309  MEMB      45              0.0000000000
      4871        45  CHL1      C19            28.3781624975       -3.0953617006       15.0357561035  MEMB      45              0.0000000000
      4872        45  CHL1      H19A           28.2302455396       -3.3882290920       16.0910330727  MEMB      45              0.0000000000
      4873        45  CHL1      H19B           27.5823897400       -3.5610306300       14.4189221120  MEMB      45              0.0000000000
      4874        45  CHL1      H19C           29.3535249690       -3.5132714786       14.7289907672  MEMB      45              0.0000000000
      4875        45  CHL1      C1             29.6828647764       -0.9629756744       15.5000326287  MEMB      45              0.0000000000
      4876        45  CHL1      H1A            30.5820283375       -1.5054694861       15.1361144558  MEMB      45              0.0000000000
      4877        45  CHL1      H1B            29.7843669026        0.0977610723       15.1726925279  MEMB      45              0.0000000000
      4878        45  CHL1      C2             29.6529328720       -0.9838101960       17.0341691688  MEMB      45              0.0000000000
      4879        45  CHL1      H2A            30.5546073434       -0.4682514329       17.4280806096  MEMB      45              0.0000000000
      4880        45  CHL1      H2B            29.6772764480       -2.0388760080       17.3854679960  MEMB      45              0.0000000000
      4881        45  CHL1      C20            28.3217059673       -1.5651317978        7.8296370335  MEMB      45              0.0000000000
      4882        45  CHL1      H20            27.5881978835       -2.3773652324        7.6059425051  MEMB      45              0.0000000000
      4883        45  CHL1      C21            29.7299414152       -2.1796366093        7.7866959689  MEMB      45              0.0000000000
      4884        45  CHL1      H21A           30.4946965986       -1.3983731729        7.9670585696  MEMB      45              0.0000000000
      4885        45  CHL1      H21B           29.9332404422       -2.6348436157        6.7953688632  MEMB      45              0.0000000000
      4886        45  CHL1      H21C           29.8366615886       -2.9896712027        8.5302674062  MEMB      45              0.0000000000
      4887        45  CHL1      C22            28.1961801259       -0.4783175337        6.7654903300  MEMB      45              0.0000000000
      4888        45  CHL1      H22A           27.3133184490        0.1807777744        6.8930273955  MEMB      45              0.0000000000
      4889        45  CHL1      H22B           29.0979722681        0.1755375364        6.7800980291  MEMB      45              0.0000000000
      4890        45  CHL1      C23            28.0221066530       -1.1451682797        5.4398070083  MEMB      45              0.0000000000
      4891        45  CHL1      H23A           28.9634948098       -1.6974433323        5.2305998065  MEMB      45              0.0000000000
      4892        45  CHL1      H23B           27.2038368186       -1.8998449423        5.4855382396  MEMB      45              0.0000000000
      4893        45  CHL1      C24            27.7129575578       -0.1217163510        4.3675448164  MEMB      45              0.0000000000
      4894        45  CHL1      H24A           26.6100952042       -0.0607316662        4.2434860865  MEMB      45              0.0000000000
      4895        45  CHL1      H24B           28.0856535894        0.8890107616        4.6471859501  MEMB      45              0.0000000000
      4896        45  CHL1      C25            28.4017613410       -0.5903233607        3.1021387018  MEMB      45              0.0000000000
      4897        45  CHL1      H25            28.0971196796        0.0478634474        2.2524386242  MEMB      45              0.0000000000
      4898        45  CHL1      C26            29.9283519622       -0.3894753028        3.2824438406  MEMB      45              0.0000000000
      4899        45  CHL1      H26A           30.4148153002       -0.1006448926        2.3298330230  MEMB      45              0.0000000000
      4900        45  CHL1      H26B           30.1334097891        0.4297576194        4.0025039954  MEMB      45              0.0000000000
      4901        45  CHL1      H26C           30.4064198000       -1.3163526378        3.6610302896  MEMB      45              0.0000000000
      4902        45  CHL1      C27            27.9078964419       -2.0340402035        2.8269767657  MEMB      45              0.0000000000
      4903        45  CHL1      H27A           27.8942800831       -2.2868064907        1.7533275256  MEMB      45              0.0000000000
      4904        45  CHL1      H27B           28.5314896499       -2.7782031374        3.3631527264  MEMB      45              0.0000000000
      4905        45  CHL1      H27C           26.8596629854       -2.1438356551        3.1805196538  MEMB      45              0.0000000000
      4906        46  CHL1      C3             15.6030078670       24.3232564316       17.7297895154  MEMB      46              0.0000000000
      4907        46  CHL1      H3             16.4162556914       23.6706277852       17.3381864619  MEMB      46              0.0000000000
      4908        46  CHL1      O3             15.6684114116       24.2853950811       19.1512558261  MEMB      46              0.0000000000
      4909        46  CHL1      H3'            16.6179036505       24.3495907391       19.3448524924  MEMB      46              0.0000000000
      4910        46  CHL1      C4             15.8349752087       25.7387386590       17.1951202341  MEMB      46              0.0000000000
      4911        46  CHL1      H4A            14.9938054185       26.3957018356       17.5068677374  MEMB      46              0.0000000000
      4912        46  CHL1      H4B            16.7580589557       26.1626072305       17.6499478119  MEMB      46              0.0000000000
      4913        46  CHL1      C5             15.9324227308       25.6441406507       15.6877383953  MEMB      46              0.0000000000
      4914        46  CHL1      C6             17.0782952171       25.9424023352       15.0617671392  MEMB      46              0.0000000000
      4915        46  CHL1      H6             17.9419607628       26.3099648552       15.6404981019  MEMB      46              0.0000000000
      4916        46  CHL1      C7             17.2316758522       25.8381882419       13.5711279127  MEMB      46              0.0000000000
      4917        46  CHL1      H7A            17.8229395396       26.6648034025       13.1322012403  MEMB      46              0.0000000000
      4918        46  CHL1      H7B            17.7679194904       24.8961466901       13.3441756682  MEMB      46              0.0000000000
      4919        46  CHL1      C8             15.8825603846       25.7398962057       12.8324658859  MEMB      46              0.0000000000
      4920        46  CHL1      H8             15.3551151035       26.7138015964       12.9127413060  MEMB      46              0.0000000000
      4921        46  CHL1      C14            16.1372738921       25.4585171185       11.3687192168  MEMB      46              0.0000000000
      4922        46  CHL1      H14            16.8072208870       24.5633058926       11.3282176775  MEMB      46              0.0000000000
      4923        46  CHL1      C15            16.8327513629       26.5701814637       10.5632016126  MEMB      46              0.0000000000
      4924        46  CHL1      H15A           16.2905187429       27.5285792831       10.7200571606  MEMB      46              0.0000000000
      4925        46  CHL1      H15B           17.8890299619       26.7336710145       10.8425090224  MEMB      46              0.0000000000
      4926        46  CHL1      C16            16.6595645599       26.0849794287        9.1198706227  MEMB      46              0.0000000000
      4927        46  CHL1      H16A           16.4013209430       26.9356572344        8.4579577643  MEMB      46              0.0000000000
      4928        46  CHL1      H16B           17.5998491638       25.6152699356        8.7565159489  MEMB      46              0.0000000000
      4929        46  CHL1      C17            15.5252924834       25.0019372706        9.1524772071  MEMB      46              0.0000000000
      4930        46  CHL1      H17            16.0472287970       24.0240794219        9.1434565357  MEMB      46              0.0000000000
      4931        46  CHL1      C13            14.9071902956       25.0792705021       10.5618332363  MEMB      46              0.0000000000
      4932        46  CHL1      C18            13.8909286980       26.2341143671       10.5845312370  MEMB      46              0.0000000000
      4933        46  CHL1      H18A           14.2854840258       27.1195993006       10.0536936160  MEMB      46              0.0000000000
      4934        46  CHL1      H18B           12.9467205273       25.9271908037       10.0938046162  MEMB      46              0.0000000000
      4935        46  CHL1      H18C           13.6385341699       26.5434760979       11.6166702459  MEMB      46              0.0000000000
      4936        46  CHL1      C12            14.3252687600       23.7932210576       11.1817289260  MEMB      46              0.0000000000
      4937        46  CHL1      H12A           13.4400125582       23.4310490727       10.6241305618  MEMB      46              0.0000000000
      4938        46  CHL1      H12B           15.1005138967       22.9959588814       11.1637158192  MEMB      46              0.0000000000
      4939        46  CHL1      C11            13.9129120203       24.0593424123       12.6408009562  MEMB      46              0.0000000000
      4940        46  CHL1      H11A           13.0574775195       24.7614226643       12.6379024408  MEMB      46              0.0000000000
      4941        46  CHL1      H11B           13.5478322239       23.1117558652       13.0909118090  MEMB      46              0.0000000000
      4942        46  CHL1      C9             15.0735599928       24.6310236221       13.5005406342  MEMB      46              0.0000000000
      4943        46  CHL1      H9             15.7774876342       23.7642654941       13.5651519463  MEMB      46              0.0000000000
      4944        46  CHL1      C10            14.7137108532       25.0188239893       14.9611741170  MEMB      46              0.0000000000
      4945        46  CHL1      C19            13.5644706991       26.0594863980       14.9404906799  MEMB      46              0.0000000000
      4946        46  CHL1      H19A           13.3158042989       26.4141902488       15.9593325648  MEMB      46              0.0000000000
      4947        46  CHL1      H19B           13.8416936560       26.9465217810       14.3356269095  MEMB      46              0.0000000000
      4948        46  CHL1      H19C           12.6427792024       25.6172146078       14.5092827655  MEMB      46              0.0000000000
      4949        46  CHL1      C1             14.2551533421       23.7325841629       15.6995472851  MEMB      46              0.0000000000
      4950        46  CHL1      H1A            13.2576519319       23.4230780883       15.3236587526  MEMB      46              0.0000000000
      4951        46  CHL1      H1B            14.9625821656       22.9245126650       15.4205057928  MEMB      46              0.0000000000
      4952        46  CHL1      C2             14.2462917923       23.8177539240       17.2307885592  MEMB      46              0.0000000000
      4953        46  CHL1      H2A            14.0224481331       22.8093967539       17.6318870735  MEMB      46              0.0000000000
      4954        46  CHL1      H2B            13.4566333183       24.5175718427       17.5742208570  MEMB      46              0.0000000000
      4955        46  CHL1      C20            14.6054432578       25.0669304337        7.9232301048  MEMB      46              0.0000000000
      4956        46  CHL1      H20            14.1635115057       26.0865207547        7.8671014910  MEMB      46              0.0000000000
      4957        46  CHL1      C21            13.4614001438       24.0317239499        8.0284437549  MEMB      46              0.0000000000
      4958        46  CHL1      H21A           13.8611690349       23.0449884150        8.3452039180  MEMB      46              0.0000000000
      4959        46  CHL1      H21B           12.9659290289       23.9056780401        7.0441882148  MEMB      46              0.0000000000
      4960        46  CHL1      H21C           12.6912463035       24.3553411802        8.7554196868  MEMB      46              0.0000000000
      4961        46  CHL1      C22            15.3660078897       24.8291424313        6.5938237566  MEMB      46              0.0000000000
      4962        46  CHL1      H22A           16.4407497901       25.0887333947        6.6806384258  MEMB      46              0.0000000000
      4963        46  CHL1      H22B           15.3142523274       23.7348975825        6.3906176432  MEMB      46              0.0000000000
      4964        46  CHL1      C23            14.7860172461       25.5686689305        5.3690853224  MEMB      46              0.0000000000
      4965        46  CHL1      H23A           13.6781987535       25.5271860207        5.4316249231  MEMB      46              0.0000000000
      4966        46  CHL1      H23B           15.0858523801       26.6390315933        5.3944004636  MEMB      46              0.0000000000
      4967        46  CHL1      C24            15.2635428668       24.8964473343        4.0655853094  MEMB      46              0.0000000000
      4968        46  CHL1      H24A           16.3575061424       25.0546369014        3.9476639954  MEMB      46              0.0000000000
      4969        46  CHL1      H24B           15.0798718415       23.8046709942        4.1918242103  MEMB      46              0.0000000000
      4970        46  CHL1      C25            14.5532044332       25.2757728434        2.7485934649  MEMB      46              0.0000000000
      4971        46  CHL1      H25            14.7692216511       26.3422137372        2.5070127905  MEMB      46              0.0000000000
      4972        46  CHL1      C26            15.0752469131       24.4035432895        1.5875757855  MEMB      46              0.0000000000
      4973        46  CHL1      H26A           16.0117003814       24.8264051067        1.1661657394  MEMB      46              0.0000000000
      4974        46  CHL1      H26B           15.2785835397       23.3667363721        1.9357256679  MEMB      46              0.0000000000
      4975        46  CHL1      H26C           14.3158124458       24.3390877959        0.7775887473  MEMB      46              0.0000000000
      4976        46  CHL1      C27            13.0324480737       25.1120534063        2.8566964576  MEMB      46              0.0000000000
      4977        46  CHL1      H27A           12.5883185268       25.8856405265        3.5167021479  MEMB      46              0.0000000000
      4978        46  CHL1      H27B           12.5701806767       25.2163842664        1.8518502206  MEMB      46              0.0000000000
      4979        46  CHL1      H27C           12.7922801702       24.1100645765        3.2709570152  MEMB      46              0.0000000000
      4980        47  SAPS      N             -17.6541166421      -26.0861544473       21.0388841447  MEMB      47              0.0000000000
      4981        47  SAPS      HN1           -17.9579258180      -26.1816208984       22.0318389148  MEMB      47              0.0000000000
      4982        47  SAPS      HN2           -18.5086847153      -25.8500046878       20.4877147579  MEMB      47              0.0000000000
      4983        47  SAPS      HN3           -17.2402475505      -26.9940181810       20.7613285621  MEMB      47              0.0000000000
      4984        47  SAPS      C12           -16.5670050450      -25.0343397647       20.9901818384  MEMB      47              0.0000000000
      4985        47  SAPS      H12A          -16.9275152619      -24.1307513417       21.4598709966  MEMB      47              0.0000000000
      4986        47  SAPS      C13           -15.2548347161      -25.4373498250       21.6887790314  MEMB      47              0.0000000000
      4987        47  SAPS      O13A          -15.0829767859      -26.6572037718       21.9379900801  MEMB      47              0.0000000000
      4988        47  SAPS      O13B          -14.5655907218      -24.5393761056       22.2387438711  MEMB      47              0.0000000000
      4989        47  SAPS      C11           -16.1986806254      -24.7909084449       19.5106142152  MEMB      47              0.0000000000
      4990        47  SAPS      H11A          -17.1147487280      -24.7423711597       18.9015623762  MEMB      47              0.0000000000
      4991        47  SAPS      H11B          -15.6297208786      -25.6533610840       19.1017411250  MEMB      47              0.0000000000
      4992        47  SAPS      P             -15.9848605845      -22.1673753785       19.1994328171  MEMB      47              0.0000000000
      4993        47  SAPS      O13           -16.8067539551      -21.8475406425       20.3992595065  MEMB      47              0.0000000000
      4994        47  SAPS      O14           -14.8259846285      -21.3315298223       18.8620888599  MEMB      47              0.0000000000
      4995        47  SAPS      O12           -15.4042306789      -23.6240481291       19.3679473414  MEMB      47              0.0000000000
      4996        47  SAPS      O11           -16.9759397697      -22.4152360824       17.9703301132  MEMB      47              0.0000000000
      4997        47  SAPS      C1            -18.3727506257      -22.6783294590       18.2261167109  MEMB      47              0.0000000000
      4998        47  SAPS      HA            -18.5353833488      -23.1612648157       19.2181187137  MEMB      47              0.0000000000
      4999        47  SAPS      HB            -18.9048392519      -21.7021912461       18.2410687727  MEMB      47              0.0000000000
      5000        47  SAPS      C2            -19.1014298048      -23.6216759595       17.1920326676  MEMB      47              0.0000000000
      5001        47  SAPS      HS            -20.0761787442      -23.9174712559       17.6424594970  MEMB      47              0.0000000000
      5002        47  SAPS      O21           -18.3213573910      -24.8133137833       16.8933886686  MEMB      47              0.0000000000
      5003        47  SAPS      C21           -18.8787043203      -25.6527212533       16.0081034636  MEMB      47              0.0000000000
      5004        47  SAPS      O22           -20.0644150423      -25.6998421115       15.7475689812  MEMB      47              0.0000000000
      5005        47  SAPS      C22           -17.8277329800      -26.5872638160       15.4207970894  MEMB      47              0.0000000000
      5006        47  SAPS      H2R           -17.0106074186      -25.9485009732       15.0225236337  MEMB      47              0.0000000000
      5007        47  SAPS      H2S           -17.4443366982      -27.2101175141       16.2542313944  MEMB      47              0.0000000000
      5008        47  SAPS      C3            -19.4192147570      -22.8017530762       15.8899331399  MEMB      47              0.0000000000
      5009        47  SAPS      HX            -20.2938863724      -22.1663702201       16.1529904818  MEMB      47              0.0000000000
      5010        47  SAPS      HY            -19.7724232035      -23.4563416228       15.0669556345  MEMB      47              0.0000000000
      5011        47  SAPS      O31           -18.3812076945      -21.8983893225       15.4665668285  MEMB      47              0.0000000000
      5012        47  SAPS      C31           -17.5980043282      -22.2863532477       14.4852789482  MEMB      47              0.0000000000
      5013        47  SAPS      O32           -17.5581270903      -23.4099760880       14.0087117201  MEMB      47              0.0000000000
      5014        47  SAPS      C32           -16.8008817227      -21.0809980279       13.9190534245  MEMB      47              0.0000000000
      5015        47  SAPS      H2X           -15.7401727803      -21.3320722686       14.1526208415  MEMB      47              0.0000000000
      5016        47  SAPS      H2Y           -17.0542936503      -20.1595616784       14.4754547119  MEMB      47              0.0000000000
      5017        47  SAPS      C23           -18.4010659649      -27.4865479833       14.2969564890  MEMB      47              0.0000000000
      5018        47  SAPS      H3R           -19.4011131112      -27.9015442665       14.5668523035  MEMB      47              0.0000000000
      5019        47  SAPS      H3S           -17.7041056185      -28.3419943766       14.1584750675  MEMB      47              0.0000000000
      5020        47  SAPS      C24           -18.4948567345      -26.7390096694       12.9599680228  MEMB      47              0.0000000000
      5021        47  SAPS      H4R           -17.5638377871      -26.1394912294       12.8316224004  MEMB      47              0.0000000000
      5022        47  SAPS      H4S           -19.3311352280      -26.0153114532       13.0667565583  MEMB      47              0.0000000000
      5023        47  SAPS      C25           -18.7417534333      -27.6278144540       11.7650573111  MEMB      47              0.0000000000
      5024        47  SAPS      H5R           -19.6542369106      -28.2392533432       11.8008089936  MEMB      47              0.0000000000
      5025        47  SAPS      C26           -17.9335855566      -27.7596200835       10.7026500613  MEMB      47              0.0000000000
      5026        47  SAPS      H6R           -18.2633743948      -28.4028724900        9.8774523577  MEMB      47              0.0000000000
      5027        47  SAPS      C27           -16.6184628676      -27.0601064011       10.4771275925  MEMB      47              0.0000000000
      5028        47  SAPS      H7R           -16.0567070862      -27.6397707515        9.7154396106  MEMB      47              0.0000000000
      5029        47  SAPS      H7S           -15.9890746882      -27.1214060078       11.3915950748  MEMB      47              0.0000000000
      5030        47  SAPS      C28           -16.7477677683      -25.6134773596       10.0633966442  MEMB      47              0.0000000000
      5031        47  SAPS      H8R           -16.8814609726      -24.8888842619       10.8810180594  MEMB      47              0.0000000000
      5032        47  SAPS      C29           -16.6433447824      -25.1691279828        8.7992737143  MEMB      47              0.0000000000
      5033        47  SAPS      H9R           -16.6838008592      -24.0866949877        8.5988363293  MEMB      47              0.0000000000
      5034        47  SAPS      C210          -16.3798404605      -26.0474035410        7.6054545041  MEMB      47              0.0000000000
      5035        47  SAPS      H10R          -16.7511806311      -25.5465631085        6.6909576105  MEMB      47              0.0000000000
      5036        47  SAPS      H10S          -16.9387781422      -27.0102929361        7.6691795823  MEMB      47              0.0000000000
      5037        47  SAPS      C211          -14.8983654982      -26.3141352219        7.5471820894  MEMB      47              0.0000000000
      5038        47  SAPS      H11R          -14.5742762066      -27.2527664152        8.0241791840  MEMB      47              0.0000000000
      5039        47  SAPS      C212          -13.9692256524      -25.5691152861        6.9309260353  MEMB      47              0.0000000000
      5040        47  SAPS      H12R          -12.9273575115      -25.7918396885        7.1802687561  MEMB      47              0.0000000000
      5041        47  SAPS      C213          -14.1348070649      -24.2971791914        6.1494150178  MEMB      47              0.0000000000
      5042        47  SAPS      H13R          -13.2151144688      -23.7310960461        6.3840348676  MEMB      47              0.0000000000
      5043        47  SAPS      H13S          -14.9774593255      -23.7210112444        6.5822292385  MEMB      47              0.0000000000
      5044        47  SAPS      C214          -14.1399605630      -24.2236697511        4.6461589231  MEMB      47              0.0000000000
      5045        47  SAPS      H14R          -13.4097216248      -23.4948977707        4.2666953212  MEMB      47              0.0000000000
      5046        47  SAPS      C215          -14.9252704105      -24.8065993546        3.7252314029  MEMB      47              0.0000000000
      5047        47  SAPS      H15R          -14.6476272303      -24.6452934369        2.6799391927  MEMB      47              0.0000000000
      5048        47  SAPS      C216          -16.0886133077      -25.7419464442        3.9008490750  MEMB      47              0.0000000000
      5049        47  SAPS      H16R          -16.7062397312      -25.7382107402        2.9738240881  MEMB      47              0.0000000000
      5050        47  SAPS      H16S          -16.7584024550      -25.3743541766        4.7014682095  MEMB      47              0.0000000000
      5051        47  SAPS      C217          -15.7527246132      -27.1904521101        4.2643431309  MEMB      47              0.0000000000
      5052        47  SAPS      H17R          -16.7188721618      -27.7270328737        4.4008662429  MEMB      47              0.0000000000
      5053        47  SAPS      H17S          -15.2202142352      -27.2339336732        5.2287558379  MEMB      47              0.0000000000
      5054        47  SAPS      C218          -14.9006671656      -27.9406379961        3.2449311043  MEMB      47              0.0000000000
      5055        47  SAPS      H18R          -14.9446161380      -28.9994684697        3.5174443256  MEMB      47              0.0000000000
      5056        47  SAPS      H18S          -13.8403920463      -27.6343391028        3.3094225276  MEMB      47              0.0000000000
      5057        47  SAPS      C219          -15.4032905995      -27.7911916888        1.8224283385  MEMB      47              0.0000000000
      5058        47  SAPS      H19R          -15.1401604865      -26.7549926598        1.5171531301  MEMB      47              0.0000000000
      5059        47  SAPS      H19S          -16.5117831840      -27.9080429082        1.8375520689  MEMB      47              0.0000000000
      5060        47  SAPS      C220          -14.8196727295      -28.7839536713        0.8282127471  MEMB      47              0.0000000000
      5061        47  SAPS      H20R          -13.7286389788      -28.6085909071        0.6997205747  MEMB      47              0.0000000000
      5062        47  SAPS      H20S          -15.3190558479      -28.7110642482       -0.1602908551  MEMB      47              0.0000000000
      5063        47  SAPS      H20T          -14.9786829218      -29.8148425285        1.1986288357  MEMB      47              0.0000000000
      5064        47  SAPS      C33           -16.8113428543      -20.8673977190       12.3648873842  MEMB      47              0.0000000000
      5065        47  SAPS      H3X           -16.6681223426      -21.8537040074       11.8748629517  MEMB      47              0.0000000000
      5066        47  SAPS      H3Y           -15.9228352087      -20.2392515612       12.1205341485  MEMB      47              0.0000000000
      5067        47  SAPS      C34           -17.9713767309      -20.1339392075       11.6573354410  MEMB      47              0.0000000000
      5068        47  SAPS      H4X           -17.8133091921      -19.0294565804       11.6793369821  MEMB      47              0.0000000000
      5069        47  SAPS      H4Y           -18.9118477915      -20.2798073388       12.2088940906  MEMB      47              0.0000000000
      5070        47  SAPS      C35           -18.0354024067      -20.5865006399       10.1736606082  MEMB      47              0.0000000000
      5071        47  SAPS      H5X           -17.5759870587      -21.5890542832       10.0596044124  MEMB      47              0.0000000000
      5072        47  SAPS      H5Y           -17.3864068712      -19.8791922246        9.6217566947  MEMB      47              0.0000000000
      5073        47  SAPS      C36           -19.4236289878      -20.6447375237        9.4817283702  MEMB      47              0.0000000000
      5074        47  SAPS      H6X           -19.8734840052      -19.6987658676        9.7302096152  MEMB      47              0.0000000000
      5075        47  SAPS      H6Y           -20.0222394013      -21.4521122914        9.9137127554  MEMB      47              0.0000000000
      5076        47  SAPS      C37           -19.3690371749      -20.7006198112        7.9514301923  MEMB      47              0.0000000000
      5077        47  SAPS      H7X           -18.8999688775      -21.6511665771        7.6276277678  MEMB      47              0.0000000000
      5078        47  SAPS      H7Y           -18.6833148889      -19.8448372873        7.9559954241  MEMB      47              0.0000000000
      5079        47  SAPS      C38           -20.2967698370      -20.0580939903        6.8684801017  MEMB      47              0.0000000000
      5080        47  SAPS      H8X           -20.9017307358      -19.2342905462        7.2995920517  MEMB      47              0.0000000000
      5081        47  SAPS      H8Y           -20.9999461658      -20.8855698342        6.6712152605  MEMB      47              0.0000000000
      5082        47  SAPS      C39           -19.8101498235      -19.6540094789        5.3770226797  MEMB      47              0.0000000000
      5083        47  SAPS      H9X           -20.6931176466      -19.1369439254        4.9843745255  MEMB      47              0.0000000000
      5084        47  SAPS      H9Y           -19.7749864209      -20.5910901720        4.8479615838  MEMB      47              0.0000000000
      5085        47  SAPS      C310          -18.5713072966      -18.8576901716        4.7685637170  MEMB      47              0.0000000000
      5086        47  SAPS      H10X          -17.5855663892      -19.1767881191        5.0165902304  MEMB      47              0.0000000000
      5087        47  SAPS      H10Y          -18.5932570460      -17.8021229905        5.1084798976  MEMB      47              0.0000000000
      5088        47  SAPS      C311          -18.3311630106      -18.9259559835        3.2028841637  MEMB      47              0.0000000000
      5089        47  SAPS      H11X          -17.7303140897      -18.0266005326        2.9759332016  MEMB      47              0.0000000000
      5090        47  SAPS      H11Y          -19.3189539158      -18.8339074875        2.7336988275  MEMB      47              0.0000000000
      5091        47  SAPS      C312          -17.2742113447      -19.9223347113        2.5813489632  MEMB      47              0.0000000000
      5092        47  SAPS      H12X          -17.5236158400      -20.9632538081        2.7625938355  MEMB      47              0.0000000000
      5093        47  SAPS      H12Y          -16.3323781621      -19.6689232236        3.1172119098  MEMB      47              0.0000000000
      5094        47  SAPS      C313          -16.8673479405      -19.8893570353        1.0775428128  MEMB      47              0.0000000000
      5095        47  SAPS      H13X          -16.0805241332      -19.1189424098        0.9426417174  MEMB      47              0.0000000000
      5096        47  SAPS      H13Y          -17.7455666848      -19.5329010667        0.5031586443  MEMB      47              0.0000000000
      5097        47  SAPS      C314          -16.4326006622      -21.2273219331        0.3555011498  MEMB      47              0.0000000000
      5098        47  SAPS      H14X          -15.8655687745      -20.9305743210       -0.5540160352  MEMB      47              0.0000000000
      5099        47  SAPS      H14Y          -17.3707401347      -21.7052637750        0.0026203236  MEMB      47              0.0000000000
      5100        47  SAPS      C315          -15.5904469564      -22.3572837666        1.0247537090  MEMB      47              0.0000000000
      5101        47  SAPS      H15X          -15.9255699879      -22.5248860553        2.0694848975  MEMB      47              0.0000000000
      5102        47  SAPS      H15Y          -14.5191543653      -22.0494605570        1.0582557832  MEMB      47              0.0000000000
      5103        47  SAPS      C316          -15.6265764635      -23.7315845526        0.2697533511  MEMB      47              0.0000000000
      5104        47  SAPS      H16X          -14.9953590070      -24.4710233424        0.8010530706  MEMB      47              0.0000000000
      5105        47  SAPS      H16Y          -15.1617328185      -23.6170391592       -0.7340910086  MEMB      47              0.0000000000
      5106        47  SAPS      C317          -17.0167492218      -24.3834786427        0.0902991921  MEMB      47              0.0000000000
      5107        47  SAPS      H17X          -17.4738707159      -23.9106767202       -0.8046509322  MEMB      47              0.0000000000
      5108        47  SAPS      H17Y          -17.6594016793      -24.1445706340        0.9656648680  MEMB      47              0.0000000000
      5109        47  SAPS      C318          -17.0483378388      -25.9134211376       -0.1004816968  MEMB      47              0.0000000000
      5110        47  SAPS      H18X          -17.5006216384      -26.4149309844        0.7773694987  MEMB      47              0.0000000000
      5111        47  SAPS      H18Y          -16.0429693783      -26.3212430296       -0.2513694591  MEMB      47              0.0000000000
      5112        47  SAPS      H18Z          -17.6205143360      -26.2388727900       -0.9901339354  MEMB      47              0.0000000000
      5113        48  SAPE      N             -25.9534708350       -9.7307570151       22.2292176608  MEMB      48              0.0000000000
      5114        48  SAPE      HN1           -24.9888091084      -10.0188109484       22.5153933502  MEMB      48              0.0000000000
      5115        48  SAPE      HN2           -26.3491694498       -9.0302422648       22.8829776505  MEMB      48              0.0000000000
      5116        48  SAPE      HN3           -26.5720724719      -10.5729176434       22.1866055448  MEMB      48              0.0000000000
      5117        48  SAPE      C12           -25.9997874539       -9.2606341881       20.8089472835  MEMB      48              0.0000000000
      5118        48  SAPE      H12A          -25.0698523695       -9.6153356044       20.3234388574  MEMB      48              0.0000000000
      5119        48  SAPE      H12B          -26.0093709506       -8.1537890601       20.7916532730  MEMB      48              0.0000000000
      5120        48  SAPE      C11           -27.2494599902       -9.8727449333       20.1373451081  MEMB      48              0.0000000000
      5121        48  SAPE      H11A          -27.1755338966       -9.7532442651       19.0292058432  MEMB      48              0.0000000000
      5122        48  SAPE      H11B          -28.1463188112       -9.2869347685       20.4518108151  MEMB      48              0.0000000000
      5123        48  SAPE      P             -26.8362525774      -12.4415479387       19.6948000102  MEMB      48              0.0000000000
      5124        48  SAPE      O13           -26.7466217409      -13.6276463463       20.5735350441  MEMB      48              0.0000000000
      5125        48  SAPE      O14           -27.3315713006      -12.5461575503       18.3122179028  MEMB      48              0.0000000000
      5126        48  SAPE      O12           -27.4632647862      -11.2391268917       20.5271889034  MEMB      48              0.0000000000
      5127        48  SAPE      O11           -25.3277359061      -11.9677933153       19.6416961267  MEMB      48              0.0000000000
      5128        48  SAPE      C1            -24.4239549191      -12.9625573929       19.1599321214  MEMB      48              0.0000000000
      5129        48  SAPE      HA            -24.1049650691      -13.6217579485       19.9957139944  MEMB      48              0.0000000000
      5130        48  SAPE      HB            -24.8704061618      -13.6103139559       18.3553412846  MEMB      48              0.0000000000
      5131        48  SAPE      C2            -23.2068865488      -12.3088257348       18.4940114317  MEMB      48              0.0000000000
      5132        48  SAPE      HS            -22.6837471945      -11.6512436063       19.2306627256  MEMB      48              0.0000000000
      5133        48  SAPE      O21           -23.6720139376      -11.6169041919       17.3178216552  MEMB      48              0.0000000000
      5134        48  SAPE      C21           -23.9727328774      -10.3598455301       17.5291855515  MEMB      48              0.0000000000
      5135        48  SAPE      O22           -23.5866854430       -9.6886221086       18.4743105170  MEMB      48              0.0000000000
      5136        48  SAPE      C22           -24.8667567019       -9.8475455226       16.3961530236  MEMB      48              0.0000000000
      5137        48  SAPE      H2R           -25.3556624376      -10.7155956269       15.9072521782  MEMB      48              0.0000000000
      5138        48  SAPE      H2S           -25.6631627322       -9.2285907991       16.8607638663  MEMB      48              0.0000000000
      5139        48  SAPE      C3            -22.2388954004      -13.4312584340       18.0822717307  MEMB      48              0.0000000000
      5140        48  SAPE      HX            -22.0888948586      -14.0598112666       18.9863983784  MEMB      48              0.0000000000
      5141        48  SAPE      HY            -21.2462358686      -13.0022222576       17.8271382243  MEMB      48              0.0000000000
      5142        48  SAPE      O31           -22.8557949269      -14.2069531510       17.0278634405  MEMB      48              0.0000000000
      5143        48  SAPE      C31           -22.0943529352      -14.4405666013       15.9606508329  MEMB      48              0.0000000000
      5144        48  SAPE      O32           -20.8899408474      -14.2902197689       15.9241473511  MEMB      48              0.0000000000
      5145        48  SAPE      C32           -22.9440383769      -14.9631497727       14.8102512977  MEMB      48              0.0000000000
      5146        48  SAPE      H2X           -23.5365886975      -15.8239532587       15.1786261937  MEMB      48              0.0000000000
      5147        48  SAPE      H2Y           -22.2269751192      -15.3397077965       14.0477762217  MEMB      48              0.0000000000
      5148        48  SAPE      C23           -24.0695199977       -9.0031148461       15.3784323717  MEMB      48              0.0000000000
      5149        48  SAPE      H3R           -23.0806895989       -9.4810022712       15.1927113238  MEMB      48              0.0000000000
      5150        48  SAPE      H3S           -23.8659399028       -8.0078038688       15.8255361521  MEMB      48              0.0000000000
      5151        48  SAPE      C24           -24.7365765366       -8.8533005786       13.9971686331  MEMB      48              0.0000000000
      5152        48  SAPE      H4R           -24.5826324738       -9.8044327927       13.4406588510  MEMB      48              0.0000000000
      5153        48  SAPE      H4S           -24.1621911113       -8.0829123130       13.4344824604  MEMB      48              0.0000000000
      5154        48  SAPE      C25           -26.1887897663       -8.4513955615       14.0180427184  MEMB      48              0.0000000000
      5155        48  SAPE      H5R           -26.4799115046       -7.7151733065       14.7850033648  MEMB      48              0.0000000000
      5156        48  SAPE      C26           -27.1134287639       -8.9151326186       13.1670234420  MEMB      48              0.0000000000
      5157        48  SAPE      H6R           -28.1386162637       -8.5405173947       13.2615241416  MEMB      48              0.0000000000
      5158        48  SAPE      C27           -26.8535326883       -9.9078569095       12.0643523386  MEMB      48              0.0000000000
      5159        48  SAPE      H7R           -27.8107799310      -10.3461164404       11.7247639605  MEMB      48              0.0000000000
      5160        48  SAPE      H7S           -26.3067645684      -10.7602578821       12.5212999254  MEMB      48              0.0000000000
      5161        48  SAPE      C28           -26.1313315735       -9.4072932458       10.8369764156  MEMB      48              0.0000000000
      5162        48  SAPE      H8R           -26.2819534025       -8.3477661703       10.5686355621  MEMB      48              0.0000000000
      5163        48  SAPE      C29           -25.3238970123      -10.1663520821       10.0756814092  MEMB      48              0.0000000000
      5164        48  SAPE      H9R           -24.8909446906       -9.7322473870        9.1615775327  MEMB      48              0.0000000000
      5165        48  SAPE      C210          -24.9965601634      -11.6219280471       10.3018460845  MEMB      48              0.0000000000
      5166        48  SAPE      H10R          -25.4849724900      -12.2058526198        9.5050135123  MEMB      48              0.0000000000
      5167        48  SAPE      H10S          -25.4491531426      -12.0171123304       11.2310488697  MEMB      48              0.0000000000
      5168        48  SAPE      C211          -23.5206769581      -11.9263789508       10.2914701628  MEMB      48              0.0000000000
      5169        48  SAPE      H11R          -23.0279174741      -11.9325561034       11.2771560327  MEMB      48              0.0000000000
      5170        48  SAPE      C212          -22.8075748413      -12.2271991589        9.1920442271  MEMB      48              0.0000000000
      5171        48  SAPE      H12R          -21.7258775738      -12.4227345947        9.2910802328  MEMB      48              0.0000000000
      5172        48  SAPE      C213          -23.3981353380      -12.3011510571        7.8049078649  MEMB      48              0.0000000000
      5173        48  SAPE      H13R          -23.5206675955      -11.2931474349        7.3729857410  MEMB      48              0.0000000000
      5174        48  SAPE      H13S          -24.4332424494      -12.6985451830        7.8389896555  MEMB      48              0.0000000000
      5175        48  SAPE      C214          -22.5440508285      -13.0674641562        6.8443160099  MEMB      48              0.0000000000
      5176        48  SAPE      H14R          -21.4542621888      -13.0124660960        6.9982636140  MEMB      48              0.0000000000
      5177        48  SAPE      C215          -23.0136362646      -13.7691925761        5.8101104396  MEMB      48              0.0000000000
      5178        48  SAPE      H15R          -22.2776730719      -14.1648008143        5.0970753782  MEMB      48              0.0000000000
      5179        48  SAPE      C216          -24.4553413468      -13.9407801766        5.3926475635  MEMB      48              0.0000000000
      5180        48  SAPE      H16R          -25.1697885370      -13.3835653775        6.0383646058  MEMB      48              0.0000000000
      5181        48  SAPE      H16S          -24.7597951855      -15.0110375564        5.4405017956  MEMB      48              0.0000000000
      5182        48  SAPE      C217          -24.6070798045      -13.4282187481        3.9540546598  MEMB      48              0.0000000000
      5183        48  SAPE      H17R          -24.1424240303      -12.4182391476        3.8685678248  MEMB      48              0.0000000000
      5184        48  SAPE      H17S          -25.6874869047      -13.3131944992        3.7190561763  MEMB      48              0.0000000000
      5185        48  SAPE      C218          -23.9931722851      -14.3817717159        2.9212128675  MEMB      48              0.0000000000
      5186        48  SAPE      H18R          -24.4551115333      -15.3890572804        3.0161500844  MEMB      48              0.0000000000
      5187        48  SAPE      H18S          -22.9121336411      -14.4999635281        3.1259303382  MEMB      48              0.0000000000
      5188        48  SAPE      C219          -24.1090798062      -13.8681517868        1.4919135389  MEMB      48              0.0000000000
      5189        48  SAPE      H19R          -25.1495375879      -13.5183091484        1.3099999602  MEMB      48              0.0000000000
      5190        48  SAPE      H19S          -23.9000525889      -14.7114428843        0.7935767088  MEMB      48              0.0000000000
      5191        48  SAPE      C220          -23.1104782534      -12.7440380335        1.2274748388  MEMB      48              0.0000000000
      5192        48  SAPE      H20R          -22.0947315140      -13.0312330025        1.5766701826  MEMB      48              0.0000000000
      5193        48  SAPE      H20S          -23.4127720186      -11.8144286237        1.7559692332  MEMB      48              0.0000000000
      5194        48  SAPE      H20T          -23.0394948069      -12.5357560660        0.1472054552  MEMB      48              0.0000000000
      5195        48  SAPE      C33           -23.8753593032      -13.9133917638       14.1603354552  MEMB      48              0.0000000000
      5196        48  SAPE      H3X           -23.2963636053      -13.0208434762       13.8392009543  MEMB      48              0.0000000000
      5197        48  SAPE      H3Y           -24.6466231178      -13.5615127233       14.8822364678  MEMB      48              0.0000000000
      5198        48  SAPE      C34           -24.5558873930      -14.4880367775       12.9112989927  MEMB      48              0.0000000000
      5199        48  SAPE      H4X           -23.8812467879      -15.2354459993       12.4363031765  MEMB      48              0.0000000000
      5200        48  SAPE      H4Y           -24.7129465351      -13.6799330284       12.1701075904  MEMB      48              0.0000000000
      5201        48  SAPE      C35           -25.9152786440      -15.1209867795       13.2062051310  MEMB      48              0.0000000000
      5202        48  SAPE      H5X           -26.6744840796      -14.3232787941       13.3762112379  MEMB      48              0.0000000000
      5203        48  SAPE      H5Y           -25.8382000717      -15.6991670473       14.1567440401  MEMB      48              0.0000000000
      5204        48  SAPE      C36           -26.3676692698      -16.0763496797       12.0981647651  MEMB      48              0.0000000000
      5205        48  SAPE      H6X           -27.3630342855      -16.4909380457       12.3828436140  MEMB      48              0.0000000000
      5206        48  SAPE      H6Y           -25.6484335548      -16.9290979079       12.0776695767  MEMB      48              0.0000000000
      5207        48  SAPE      C37           -26.4837986412      -15.4898735421       10.6691168881  MEMB      48              0.0000000000
      5208        48  SAPE      H7X           -26.6832989817      -16.3396616245        9.9821796471  MEMB      48              0.0000000000
      5209        48  SAPE      H7Y           -25.5274071164      -15.0275891499       10.3483482667  MEMB      48              0.0000000000
      5210        48  SAPE      C38           -27.6579281807      -14.5077471340       10.5153112973  MEMB      48              0.0000000000
      5211        48  SAPE      H8X           -27.4076500670      -13.5528448361       11.0228872388  MEMB      48              0.0000000000
      5212        48  SAPE      H8Y           -28.5098978508      -14.9598878311       11.0781445803  MEMB      48              0.0000000000
      5213        48  SAPE      C39           -28.1706619210      -14.2525004401        9.0713164952  MEMB      48              0.0000000000
      5214        48  SAPE      H9X           -29.2808656672      -14.2058568216        9.1526014308  MEMB      48              0.0000000000
      5215        48  SAPE      H9Y           -27.9360322723      -15.1034175900        8.4006648110  MEMB      48              0.0000000000
      5216        48  SAPE      C310          -27.7254137265      -12.9117183857        8.4477029170  MEMB      48              0.0000000000
      5217        48  SAPE      H10X          -26.7909706492      -13.0529546115        7.8629283974  MEMB      48              0.0000000000
      5218        48  SAPE      H10Y          -27.5025759181      -12.2186921538        9.2884162567  MEMB      48              0.0000000000
      5219        48  SAPE      C311          -28.7834824064      -12.1831237972        7.5927921741  MEMB      48              0.0000000000
      5220        48  SAPE      H11X          -29.7972144914      -12.4089547348        7.9892397475  MEMB      48              0.0000000000
      5221        48  SAPE      H11Y          -28.7398203982      -12.5724759118        6.5535811973  MEMB      48              0.0000000000
      5222        48  SAPE      C312          -28.6205469866      -10.6429276265        7.5833997957  MEMB      48              0.0000000000
      5223        48  SAPE      H12X          -28.6699265181      -10.2557804011        8.6249782771  MEMB      48              0.0000000000
      5224        48  SAPE      H12Y          -29.4746953813      -10.1959096819        7.0248596232  MEMB      48              0.0000000000
      5225        48  SAPE      C313          -27.3097632457      -10.1998058206        6.9152113486  MEMB      48              0.0000000000
      5226        48  SAPE      H13X          -27.3173366537      -10.6366044628        5.8928409705  MEMB      48              0.0000000000
      5227        48  SAPE      H13Y          -26.4498543390      -10.6476348592        7.4588191560  MEMB      48              0.0000000000
      5228        48  SAPE      C314          -27.0850149674       -8.6808799791        6.8141157183  MEMB      48              0.0000000000
      5229        48  SAPE      H14X          -26.9923276833       -8.2451599429        7.8346602318  MEMB      48              0.0000000000
      5230        48  SAPE      H14Y          -27.9641017610       -8.2039342691        6.3236235491  MEMB      48              0.0000000000
      5231        48  SAPE      C315          -25.8191575530       -8.3206588279        6.0085987729  MEMB      48              0.0000000000
      5232        48  SAPE      H15X          -24.9194308945       -8.5818592844        6.6098765584  MEMB      48              0.0000000000
      5233        48  SAPE      H15Y          -25.7958665468       -7.2215619093        5.8368691379  MEMB      48              0.0000000000
      5234        48  SAPE      C316          -25.7184643488       -9.0583204282        4.6623191983  MEMB      48              0.0000000000
      5235        48  SAPE      H16X          -26.7161198859       -9.0946507437        4.1706733616  MEMB      48              0.0000000000
      5236        48  SAPE      H16Y          -25.4065598942      -10.1096682280        4.8669812043  MEMB      48              0.0000000000
      5237        48  SAPE      C317          -24.6946076760       -8.4562646065        3.6913494250  MEMB      48              0.0000000000
      5238        48  SAPE      H17X          -24.4124213776       -9.2434629386        2.9543962160  MEMB      48              0.0000000000
      5239        48  SAPE      H17Y          -23.7875540272       -8.1611061366        4.2617524042  MEMB      48              0.0000000000
      5240        48  SAPE      C318          -25.2112567568       -7.2608540891        2.9042337236  MEMB      48              0.0000000000
      5241        48  SAPE      H18X          -26.1128060490       -7.5656445856        2.3243578644  MEMB      48              0.0000000000
      5242        48  SAPE      H18Y          -24.4765917381       -6.8450956085        2.1880034340  MEMB      48              0.0000000000
      5243        48  SAPE      H18Z          -25.4824071433       -6.4503405918        3.6163273637  MEMB      48              0.0000000000
      5244        49  CHL1      C3             25.4138879269       13.2985408261       17.9953142648  MEMB      49              0.0000000000
      5245        49  CHL1      H3             24.4304944871       12.9261369667       18.3304015385  MEMB      49              0.0000000000
      5246        49  CHL1      O3             26.1920823789       13.4700259018       19.1523344378  MEMB      49              0.0000000000
      5247        49  CHL1      H3'            25.5809588657       13.8564732724       19.8001783727  MEMB      49              0.0000000000
      5248        49  CHL1      C4             26.1141284151       12.2410023453       17.1384624422  MEMB      49              0.0000000000
      5249        49  CHL1      H4A            27.1640754073       12.5787135214       17.0715889696  MEMB      49              0.0000000000
      5250        49  CHL1      H4B            26.1205529255       11.3006727700       17.7321863107  MEMB      49              0.0000000000
      5251        49  CHL1      C5             25.6389963541       12.0315334389       15.7252252311  MEMB      49              0.0000000000
      5252        49  CHL1      C6             25.4308062830       10.8092375121       15.1798004995  MEMB      49              0.0000000000
      5253        49  CHL1      H6             25.6824317777        9.9117972864       15.7688354099  MEMB      49              0.0000000000
      5254        49  CHL1      C7             25.0421332914       10.5803990677       13.7267366577  MEMB      49              0.0000000000
      5255        49  CHL1      H7A            25.6600458701        9.7823504839       13.2558617000  MEMB      49              0.0000000000
      5256        49  CHL1      H7B            23.9806713159       10.2669155094       13.6540275136  MEMB      49              0.0000000000
      5257        49  CHL1      C8             25.2789736440       11.8959808977       12.9302782968  MEMB      49              0.0000000000
      5258        49  CHL1      H8             26.3819988210       11.9589019195       12.9540989789  MEMB      49              0.0000000000
      5259        49  CHL1      C14            24.8648147526       11.9053814302       11.4644457927  MEMB      49              0.0000000000
      5260        49  CHL1      H14            23.7499479142       11.8145889985       11.4612075178  MEMB      49              0.0000000000
      5261        49  CHL1      C15            25.3135971610       10.7432798865       10.5504003358  MEMB      49              0.0000000000
      5262        49  CHL1      H15A           26.3215752909       10.4149081245       10.8459407496  MEMB      49              0.0000000000
      5263        49  CHL1      H15B           24.6216445733        9.8809399975       10.6371113104  MEMB      49              0.0000000000
      5264        49  CHL1      C16            25.3023065279       11.2994561389        9.1200492213  MEMB      49              0.0000000000
      5265        49  CHL1      H16A           26.2585320593       11.1193848972        8.6020184332  MEMB      49              0.0000000000
      5266        49  CHL1      H16B           24.5146120812       10.8141364604        8.5034038535  MEMB      49              0.0000000000
      5267        49  CHL1      C17            24.9600402169       12.8036806607        9.2519567853  MEMB      49              0.0000000000
      5268        49  CHL1      H17            23.8443047574       12.7812075566        9.1815583687  MEMB      49              0.0000000000
      5269        49  CHL1      C13            25.1802096382       13.2352422529       10.7478490382  MEMB      49              0.0000000000
      5270        49  CHL1      C18            26.5857701392       13.8279788031       11.0797469938  MEMB      49              0.0000000000
      5271        49  CHL1      H18A           27.2442153432       13.9669524343       10.2233877056  MEMB      49              0.0000000000
      5272        49  CHL1      H18B           26.4687364163       14.8345364979       11.5309833491  MEMB      49              0.0000000000
      5273        49  CHL1      H18C           27.1619378027       13.2483947303       11.8114355275  MEMB      49              0.0000000000
      5274        49  CHL1      C12            24.1594678962       14.2258397557       11.3276040443  MEMB      49              0.0000000000
      5275        49  CHL1      H12A           24.2539065315       15.2289502268       10.8611402089  MEMB      49              0.0000000000
      5276        49  CHL1      H12B           23.1629633589       13.8352691054       11.0904116721  MEMB      49              0.0000000000
      5277        49  CHL1      C11            24.2607563702       14.3574262096       12.8630306882  MEMB      49              0.0000000000
      5278        49  CHL1      H11A           24.9729133158       15.1749982810       13.0840300183  MEMB      49              0.0000000000
      5279        49  CHL1      H11B           23.2688838513       14.7050302895       13.2348507833  MEMB      49              0.0000000000
      5280        49  CHL1      C9             24.6265913037       13.0694321120       13.6821613126  MEMB      49              0.0000000000
      5281        49  CHL1      H9             23.6248983787       12.6652935432       13.9902372651  MEMB      49              0.0000000000
      5282        49  CHL1      C10            25.3967997339       13.3600891194       14.9907916861  MEMB      49              0.0000000000
      5283        49  CHL1      C19            26.7980879401       13.9602000769       14.6521243118  MEMB      49              0.0000000000
      5284        49  CHL1      H19A           26.7062748666       14.8868829300       14.0569835456  MEMB      49              0.0000000000
      5285        49  CHL1      H19B           27.3620498397       14.2252645467       15.5676716750  MEMB      49              0.0000000000
      5286        49  CHL1      H19C           27.4317665605       13.2499872408       14.0877730956  MEMB      49              0.0000000000
      5287        49  CHL1      C1             24.5953355619       14.3524021229       15.8931239247  MEMB      49              0.0000000000
      5288        49  CHL1      H1A            24.4512340233       15.3176919893       15.3676734965  MEMB      49              0.0000000000
      5289        49  CHL1      H1B            23.5890423637       13.9232293409       16.0798384753  MEMB      49              0.0000000000
      5290        49  CHL1      C2             25.2480081347       14.6281760773       17.2592042836  MEMB      49              0.0000000000
      5291        49  CHL1      H2A            24.6163234781       15.3380312188       17.8417242992  MEMB      49              0.0000000000
      5292        49  CHL1      H2B            26.2391215832       15.1192180268       17.1259334018  MEMB      49              0.0000000000
      5293        49  CHL1      C20            25.4019535154       13.6931810465        8.0710238653  MEMB      49              0.0000000000
      5294        49  CHL1      H20            26.2968952789       14.2663598772        8.3827947584  MEMB      49              0.0000000000
      5295        49  CHL1      C21            24.2137087594       14.6407607435        7.8270753183  MEMB      49              0.0000000000
      5296        49  CHL1      H21A           24.4580652077       15.4242571208        7.0815138592  MEMB      49              0.0000000000
      5297        49  CHL1      H21B           23.9091663289       15.1381037316        8.7683196919  MEMB      49              0.0000000000
      5298        49  CHL1      H21C           23.3170011305       14.0858796084        7.4743370110  MEMB      49              0.0000000000
      5299        49  CHL1      C22            25.8245555503       13.0208742881        6.7172805237  MEMB      49              0.0000000000
      5300        49  CHL1      H22A           26.2636622710       13.8286280609        6.0808215323  MEMB      49              0.0000000000
      5301        49  CHL1      H22B           26.6099588167       12.2621618473        6.8688877522  MEMB      49              0.0000000000
      5302        49  CHL1      C23            24.6406370235       12.4385803508        5.9443924559  MEMB      49              0.0000000000
      5303        49  CHL1      H23A           23.9225510930       12.2253195112        6.7688830908  MEMB      49              0.0000000000
      5304        49  CHL1      H23B           24.2297266135       13.2516642424        5.3013659282  MEMB      49              0.0000000000
      5305        49  CHL1      C24            24.7448110934       11.1025159414        5.1570479224  MEMB      49              0.0000000000
      5306        49  CHL1      H24A           25.6355858946       11.0365800023        4.5000994352  MEMB      49              0.0000000000
      5307        49  CHL1      H24B           24.8159595566       10.2935081302        5.9185415543  MEMB      49              0.0000000000
      5308        49  CHL1      C25            23.4402468292       10.8566846099        4.3540968548  MEMB      49              0.0000000000
      5309        49  CHL1      H25            23.5092410538       11.3111205958        3.3352068995  MEMB      49              0.0000000000
      5310        49  CHL1      C26            23.0072804695        9.3885510455        4.1693744966  MEMB      49              0.0000000000
      5311        49  CHL1      H26A           22.7553142968        8.9302560490        5.1512920478  MEMB      49              0.0000000000
      5312        49  CHL1      H26B           22.0748995446        9.3960404040        3.5637420102  MEMB      49              0.0000000000
      5313        49  CHL1      H26C           23.7362604357        8.7654578315        3.6203127992  MEMB      49              0.0000000000
      5314        49  CHL1      C27            22.2950560071       11.5421033482        5.0942408395  MEMB      49              0.0000000000
      5315        49  CHL1      H27A           22.2933885668       11.2478533138        6.1522423907  MEMB      49              0.0000000000
      5316        49  CHL1      H27B           22.2981259992       12.6445806864        5.0538632652  MEMB      49              0.0000000000
      5317        49  CHL1      H27C           21.3584459406       11.2192242271        4.6651099241  MEMB      49              0.0000000000
      5318        50  CHL1      C3            -27.2591672749       10.9462488872       17.2727080500  MEMB      50              0.0000000000
      5319        50  CHL1      H3            -27.7686572839       11.9383311660       17.2531661336  MEMB      50              0.0000000000
      5320        50  CHL1      O3            -26.9669867324       10.6106604735       18.6221685243  MEMB      50              0.0000000000
      5321        50  CHL1      H3'           -26.1534819895       11.0875828611       18.8556815925  MEMB      50              0.0000000000
      5322        50  CHL1      C4            -28.1885551762        9.8749583568       16.6835641408  MEMB      50              0.0000000000
      5323        50  CHL1      H4A           -27.6766384564        8.8974404956       16.7861114520  MEMB      50              0.0000000000
      5324        50  CHL1      H4B           -29.1043327894        9.8216871229       17.3154263352  MEMB      50              0.0000000000
      5325        50  CHL1      C5            -28.5033472627       10.1401285929       15.2265085099  MEMB      50              0.0000000000
      5326        50  CHL1      C6            -29.7736498833       10.2997138992       14.8256712074  MEMB      50              0.0000000000
      5327        50  CHL1      H6            -30.5824729557       10.1924761926       15.5628544474  MEMB      50              0.0000000000
      5328        50  CHL1      C7            -30.1780724930       10.5370648209       13.3991480526  MEMB      50              0.0000000000
      5329        50  CHL1      H7A           -31.0566109506        9.9134034296       13.1421789032  MEMB      50              0.0000000000
      5330        50  CHL1      H7B           -30.4654805401       11.6014909107       13.2552099954  MEMB      50              0.0000000000
      5331        50  CHL1      C8            -29.0326313932       10.2028352000       12.4112177422  MEMB      50              0.0000000000
      5332        50  CHL1      H8            -28.9249096350        9.0946360513       12.4309585124  MEMB      50              0.0000000000
      5333        50  CHL1      C14           -29.3981836574       10.6641581321       10.9920057139  MEMB      50              0.0000000000
      5334        50  CHL1      H14           -29.5992849989       11.7616449024       11.0502522879  MEMB      50              0.0000000000
      5335        50  CHL1      C15           -30.6352971467       10.0176571718       10.3492699189  MEMB      50              0.0000000000
      5336        50  CHL1      H15A          -30.6356016650        8.9454920016       10.6404139842  MEMB      50              0.0000000000
      5337        50  CHL1      H15B          -31.5785854113       10.4929647188       10.6814865067  MEMB      50              0.0000000000
      5338        50  CHL1      C16           -30.4031635647       10.1294763973        8.8293869211  MEMB      50              0.0000000000
      5339        50  CHL1      H16A          -30.4050827843        9.1069743030        8.3926527076  MEMB      50              0.0000000000
      5340        50  CHL1      H16B          -31.1963889514       10.6824353447        8.3290478851  MEMB      50              0.0000000000
      5341        50  CHL1      C17           -29.0117038768       10.8095315070        8.6244235665  MEMB      50              0.0000000000
      5342        50  CHL1      H17           -29.1722145877       11.9099040930        8.5900928703  MEMB      50              0.0000000000
      5343        50  CHL1      C13           -28.3003303076       10.4840641805        9.9527373869  MEMB      50              0.0000000000
      5344        50  CHL1      C18           -27.9782610976        8.9927551504        9.8615356084  MEMB      50              0.0000000000
      5345        50  CHL1      H18A          -27.8360413951        8.5825342288       10.8670702086  MEMB      50              0.0000000000
      5346        50  CHL1      H18B          -28.7333252333        8.3622924835        9.3590448162  MEMB      50              0.0000000000
      5347        50  CHL1      H18C          -27.0433852705        8.8670631167        9.3114617221  MEMB      50              0.0000000000
      5348        50  CHL1      C12           -27.0849359683       11.3090408540       10.4278678921  MEMB      50              0.0000000000
      5349        50  CHL1      H12A          -26.2299365229       11.2544382677        9.7323785868  MEMB      50              0.0000000000
      5350        50  CHL1      H12B          -27.3844078700       12.3744143989       10.5178550776  MEMB      50              0.0000000000
      5351        50  CHL1      C11           -26.5945054582       10.7975216147       11.8008021782  MEMB      50              0.0000000000
      5352        50  CHL1      H11A          -26.2140179711        9.7649646455       11.6567934985  MEMB      50              0.0000000000
      5353        50  CHL1      H11B          -25.7337152549       11.4151339820       12.1269770309  MEMB      50              0.0000000000
      5354        50  CHL1      C9            -27.7095871845       10.8304459274       12.8887950527  MEMB      50              0.0000000000
      5355        50  CHL1      H9            -27.9412600519       11.9153201469       13.0216082559  MEMB      50              0.0000000000
      5356        50  CHL1      C10           -27.2781794436       10.3090958300       14.2954124983  MEMB      50              0.0000000000
      5357        50  CHL1      C19           -26.5665740334        8.9407378365       14.1168724621  MEMB      50              0.0000000000
      5358        50  CHL1      H19A          -26.3150636286        8.4751250639       15.0910987971  MEMB      50              0.0000000000
      5359        50  CHL1      H19B          -27.2100144970        8.2340402233       13.5569845239  MEMB      50              0.0000000000
      5360        50  CHL1      H19C          -25.6080249495        9.0617998134       13.5745903125  MEMB      50              0.0000000000
      5361        50  CHL1      C1            -26.2937734706       11.3188430539       14.9655099261  MEMB      50              0.0000000000
      5362        50  CHL1      H1A           -25.3457674574       11.3390748568       14.3889327860  MEMB      50              0.0000000000
      5363        50  CHL1      H1B           -26.7463999317       12.3333316038       14.9099026258  MEMB      50              0.0000000000
      5364        50  CHL1      C2            -25.9681843486       11.0261256271       16.4472432919  MEMB      50              0.0000000000
      5365        50  CHL1      H2A           -25.3015618741       11.8140213407       16.8582548888  MEMB      50              0.0000000000
      5366        50  CHL1      H2B           -25.4339331913       10.0534511586       16.5244349842  MEMB      50              0.0000000000
      5367        50  CHL1      C20           -28.3336131339       10.3696534814        7.3073142365  MEMB      50              0.0000000000
      5368        50  CHL1      H20           -28.2073701633        9.2632417135        7.3392472166  MEMB      50              0.0000000000
      5369        50  CHL1      C21           -26.9278685355       10.9842582887        7.1592407846  MEMB      50              0.0000000000
      5370        50  CHL1      H21A          -26.9602104497       12.0849540775        7.2826651843  MEMB      50              0.0000000000
      5371        50  CHL1      H21B          -26.4772944065       10.7437066044        6.1760815233  MEMB      50              0.0000000000
      5372        50  CHL1      H21C          -26.2425202659       10.5381326052        7.9028661335  MEMB      50              0.0000000000
      5373        50  CHL1      C22           -29.1777419910       10.6403270482        6.0363795853  MEMB      50              0.0000000000
      5374        50  CHL1      H22A          -30.1162918504       10.0491893335        6.1129531843  MEMB      50              0.0000000000
      5375        50  CHL1      H22B          -29.4555886446       11.7127369615        5.9681948588  MEMB      50              0.0000000000
      5376        50  CHL1      C23           -28.4673300208       10.2161173354        4.7325266594  MEMB      50              0.0000000000
      5377        50  CHL1      H23A          -27.7969085795       11.0229573297        4.3731211573  MEMB      50              0.0000000000
      5378        50  CHL1      H23B          -27.8326786427        9.3400830567        4.9600116996  MEMB      50              0.0000000000
      5379        50  CHL1      C24           -29.4550786557        9.7760149788        3.6502555047  MEMB      50              0.0000000000
      5380        50  CHL1      H24A          -29.8904441339        8.8145968962        4.0117233936  MEMB      50              0.0000000000
      5381        50  CHL1      H24B          -30.2614170480       10.5372235387        3.5744294433  MEMB      50              0.0000000000
      5382        50  CHL1      C25           -28.8811141870        9.5255159764        2.2431130930  MEMB      50              0.0000000000
      5383        50  CHL1      H25           -27.9703473615        8.9129780505        2.3676331455  MEMB      50              0.0000000000
      5384        50  CHL1      C26           -29.8215915751        8.6768403319        1.3724530027  MEMB      50              0.0000000000
      5385        50  CHL1      H26A          -29.3326730756        8.4129082622        0.4111010153  MEMB      50              0.0000000000
      5386        50  CHL1      H26B          -30.0874278700        7.7377684414        1.9041406271  MEMB      50              0.0000000000
      5387        50  CHL1      H26C          -30.7525596364        9.2385693338        1.1548253471  MEMB      50              0.0000000000
      5388        50  CHL1      C27           -28.5500273214       10.8466759430        1.5379907373  MEMB      50              0.0000000000
      5389        50  CHL1      H27A          -27.8525640099       11.4588931791        2.1461363148  MEMB      50              0.0000000000
      5390        50  CHL1      H27B          -28.0847511348       10.6578473037        0.5487506481  MEMB      50              0.0000000000
      5391        50  CHL1      H27C          -29.4847818986       11.4301319983        1.3878258565  MEMB      50              0.0000000000
      5392        51  SAPC      N             -29.8945899107        1.7394802847       18.6415133583  MEMB      51              0.0000000000
      5393        51  SAPC      C12           -29.1049125162        3.0127774554       18.9144952943  MEMB      51              0.0000000000
      5394        51  SAPC      H12A          -29.4519609102        3.8206617099       18.2827166900  MEMB      51              0.0000000000
      5395        51  SAPC      H12B          -28.0527461140        2.8617435787       18.6872230149  MEMB      51              0.0000000000
      5396        51  SAPC      C13           -31.3504239638        1.9859631653       18.8959355888  MEMB      51              0.0000000000
      5397        51  SAPC      H13A          -31.4864166914        2.4261640207       19.8830626925  MEMB      51              0.0000000000
      5398        51  SAPC      H13B          -31.7791438568        2.6898678916       18.1907414254  MEMB      51              0.0000000000
      5399        51  SAPC      H13C          -31.9317557429        1.0743961046       18.8718723469  MEMB      51              0.0000000000
      5400        51  SAPC      C14           -29.6863704195        1.2476472648       17.2534565333  MEMB      51              0.0000000000
      5401        51  SAPC      H14A          -28.6510315861        0.9687703845       17.0861052722  MEMB      51              0.0000000000
      5402        51  SAPC      H14B          -30.2921292263        0.3694477414       17.0628219836  MEMB      51              0.0000000000
      5403        51  SAPC      H14C          -29.9474248114        2.0062173270       16.5258755117  MEMB      51              0.0000000000
      5404        51  SAPC      C15           -29.4402522637        0.6908356901       19.6180748618  MEMB      51              0.0000000000
      5405        51  SAPC      H15A          -28.4014305025        0.4220988414       19.4694312465  MEMB      51              0.0000000000
      5406        51  SAPC      H15B          -29.4211314850        1.1556314390       20.6126989300  MEMB      51              0.0000000000
      5407        51  SAPC      H15C          -30.0738051543       -0.1759851969       19.6676664159  MEMB      51              0.0000000000
      5408        51  SAPC      C11           -29.1380725971        3.5084717651       20.3731023414  MEMB      51              0.0000000000
      5409        51  SAPC      H11A          -30.1830325386        3.5523975686       20.7413316091  MEMB      51              0.0000000000
      5410        51  SAPC      H11B          -28.7828753826        4.5557874446       20.3899021517  MEMB      51              0.0000000000
      5411        51  SAPC      P             -27.2479508281        3.0276807793       22.2261669864  MEMB      51              0.0000000000
      5412        51  SAPC      O13           -27.8595721389        3.7776510460       23.3303011016  MEMB      51              0.0000000000
      5413        51  SAPC      O14           -26.4783618566        1.8259700289       22.6506761255  MEMB      51              0.0000000000
      5414        51  SAPC      O12           -28.3637435925        2.6348183409       21.1803334397  MEMB      51              0.0000000000
      5415        51  SAPC      O11           -26.2890574421        4.0036325919       21.4465687112  MEMB      51              0.0000000000
      5416        51  SAPC      C1            -26.5097865026        5.3786017242       21.1237052092  MEMB      51              0.0000000000
      5417        51  SAPC      HA            -27.5423185899        5.7431727327       21.3132611883  MEMB      51              0.0000000000
      5418        51  SAPC      HB            -25.8706020607        5.9836533576       21.8049012770  MEMB      51              0.0000000000
      5419        51  SAPC      C2            -26.0510675083        5.6908292578       19.6581373254  MEMB      51              0.0000000000
      5420        51  SAPC      HS            -25.7977026602        6.7739448907       19.6087841204  MEMB      51              0.0000000000
      5421        51  SAPC      O21           -27.0903158625        5.3779969757       18.6901845804  MEMB      51              0.0000000000
      5422        51  SAPC      C21           -27.0706070685        6.0279657930       17.5133096871  MEMB      51              0.0000000000
      5423        51  SAPC      O22           -26.2847967093        6.8966335685       17.1951176099  MEMB      51              0.0000000000
      5424        51  SAPC      C22           -28.2346123033        5.4879508508       16.6598822791  MEMB      51              0.0000000000
      5425        51  SAPC      H2R           -28.1121926762        4.3891887423       16.5808260982  MEMB      51              0.0000000000
      5426        51  SAPC      H2S           -29.1698548265        5.7193939046       17.2085243026  MEMB      51              0.0000000000
      5427        51  SAPC      C3            -24.7266003897        4.8724609974       19.4160993103  MEMB      51              0.0000000000
      5428        51  SAPC      HX            -24.1385026186        5.0187288704       20.3518752457  MEMB      51              0.0000000000
      5429        51  SAPC      HY            -24.1510011703        5.3520376356       18.6128110506  MEMB      51              0.0000000000
      5430        51  SAPC      O31           -24.8451284042        3.4410472232       19.2286271901  MEMB      51              0.0000000000
      5431        51  SAPC      C31           -25.3029597172        3.0452992534       18.0586376303  MEMB      51              0.0000000000
      5432        51  SAPC      O32           -25.5644386781        3.7522464930       17.1032577681  MEMB      51              0.0000000000
      5433        51  SAPC      C32           -25.4805081695        1.5396836762       18.1039494930  MEMB      51              0.0000000000
      5434        51  SAPC      H2X           -26.1210430307        1.3208372489       18.9861425233  MEMB      51              0.0000000000
      5435        51  SAPC      H2Y           -24.4861764776        1.0809344535       18.2891544566  MEMB      51              0.0000000000
      5436        51  SAPC      C23           -28.3408632578        6.0785918667       15.2346388271  MEMB      51              0.0000000000
      5437        51  SAPC      H3R           -27.5113506631        5.6935530003       14.5994555461  MEMB      51              0.0000000000
      5438        51  SAPC      H3S           -28.2253030789        7.1835928016       15.3046486331  MEMB      51              0.0000000000
      5439        51  SAPC      C24           -29.7080772441        5.8320719500       14.5606049939  MEMB      51              0.0000000000
      5440        51  SAPC      H4R           -29.6967479508        6.3654027812       13.5839716635  MEMB      51              0.0000000000
      5441        51  SAPC      H4S           -30.4852847520        6.3283800580       15.1822395477  MEMB      51              0.0000000000
      5442        51  SAPC      C25           -30.0814666285        4.3798792411       14.4044744067  MEMB      51              0.0000000000
      5443        51  SAPC      H5R           -30.0859942707        3.8055678994       15.3402101766  MEMB      51              0.0000000000
      5444        51  SAPC      C26           -30.4260450817        3.7469160388       13.2687630260  MEMB      51              0.0000000000
      5445        51  SAPC      H6R           -30.6918706885        2.6801188118       13.3265244615  MEMB      51              0.0000000000
      5446        51  SAPC      C27           -30.5250061805        4.3227496916       11.8768111743  MEMB      51              0.0000000000
      5447        51  SAPC      H7R           -30.4704694382        5.4333009870       11.8683880824  MEMB      51              0.0000000000
      5448        51  SAPC      H7S           -31.5168225628        4.0614068229       11.4443517170  MEMB      51              0.0000000000
      5449        51  SAPC      C28           -29.4400861009        3.6795485770       11.0520153673  MEMB      51              0.0000000000
      5450        51  SAPC      H8R           -29.5543419870        2.5879078015       10.9595212621  MEMB      51              0.0000000000
      5451        51  SAPC      C29           -28.4166939135        4.2631336373       10.3957873663  MEMB      51              0.0000000000
      5452        51  SAPC      H9R           -27.7208090819        3.6177199342        9.8445232312  MEMB      51              0.0000000000
      5453        51  SAPC      C210          -28.0692862147        5.7225217999       10.2943408812  MEMB      51              0.0000000000
      5454        51  SAPC      H10R          -29.0020922226        6.3176929432       10.4020493619  MEMB      51              0.0000000000
      5455        51  SAPC      H10S          -27.7517311571        5.9151094940        9.2454608060  MEMB      51              0.0000000000
      5456        51  SAPC      C211          -27.0527438130        6.3090633575       11.2520197744  MEMB      51              0.0000000000
      5457        51  SAPC      H11R          -27.4253888039        6.4316207577       12.2816313215  MEMB      51              0.0000000000
      5458        51  SAPC      C212          -25.7954285376        6.7309172742       10.9635391370  MEMB      51              0.0000000000
      5459        51  SAPC      H12R          -25.2064762022        7.1919982548       11.7736404286  MEMB      51              0.0000000000
      5460        51  SAPC      C213          -25.1069432430        6.6877191455        9.6105501717  MEMB      51              0.0000000000
      5461        51  SAPC      H13R          -25.5856874399        5.8522830663        9.0663281234  MEMB      51              0.0000000000
      5462        51  SAPC      H13S          -24.0659421202        6.3496914859        9.7951288763  MEMB      51              0.0000000000
      5463        51  SAPC      C214          -24.9743963404        7.8546987521        8.6624327210  MEMB      51              0.0000000000
      5464        51  SAPC      H14R          -24.8088678576        8.8365822490        9.1371614252  MEMB      51              0.0000000000
      5465        51  SAPC      C215          -25.1833569369        7.8186227643        7.3286152081  MEMB      51              0.0000000000
      5466        51  SAPC      H15R          -25.1631457291        8.7714271042        6.7727969009  MEMB      51              0.0000000000
      5467        51  SAPC      C216          -25.5945946642        6.6276601033        6.4837706201  MEMB      51              0.0000000000
      5468        51  SAPC      H16R          -25.7467746272        5.6977801641        7.0699853271  MEMB      51              0.0000000000
      5469        51  SAPC      H16S          -24.8267304726        6.4050369718        5.7095429483  MEMB      51              0.0000000000
      5470        51  SAPC      C217          -26.9299103089        6.9986369971        5.8129485570  MEMB      51              0.0000000000
      5471        51  SAPC      H17R          -26.6985932478        7.7355901077        5.0166389855  MEMB      51              0.0000000000
      5472        51  SAPC      H17S          -27.5916526813        7.4819797031        6.5691598297  MEMB      51              0.0000000000
      5473        51  SAPC      C218          -27.7722708532        5.8555918424        5.2227885040  MEMB      51              0.0000000000
      5474        51  SAPC      H18R          -28.7694706149        6.2766015278        4.9465678748  MEMB      51              0.0000000000
      5475        51  SAPC      H18S          -27.9440349434        5.0927458725        6.0130759366  MEMB      51              0.0000000000
      5476        51  SAPC      C219          -27.1578454779        5.2054555853        3.9789140080  MEMB      51              0.0000000000
      5477        51  SAPC      H19R          -27.7220361390        4.2860090287        3.7258094981  MEMB      51              0.0000000000
      5478        51  SAPC      H19S          -26.1213421054        4.8858817668        4.2257019764  MEMB      51              0.0000000000
      5479        51  SAPC      C220          -27.1508716129        6.1049798190        2.7402269443  MEMB      51              0.0000000000
      5480        51  SAPC      H20R          -26.6360013747        5.5960141083        1.8969678756  MEMB      51              0.0000000000
      5481        51  SAPC      H20S          -26.6093360870        7.0444519238        2.9650848555  MEMB      51              0.0000000000
      5482        51  SAPC      H20T          -28.1796745227        6.3738049757        2.4193235021  MEMB      51              0.0000000000
      5483        51  SAPC      C33           -26.1124165689        0.9820668224       16.8123843032  MEMB      51              0.0000000000
      5484        51  SAPC      H3X           -27.0304713549        1.5418087074       16.5369045054  MEMB      51              0.0000000000
      5485        51  SAPC      H3Y           -26.3881549511       -0.0744617053       17.0378734970  MEMB      51              0.0000000000
      5486        51  SAPC      C34           -25.1564867636        0.9860471628       15.6116042439  MEMB      51              0.0000000000
      5487        51  SAPC      H4X           -24.1831294467        0.5722841843       15.9715289667  MEMB      51              0.0000000000
      5488        51  SAPC      H4Y           -24.9524132838        2.0164124051       15.2410824674  MEMB      51              0.0000000000
      5489        51  SAPC      C35           -25.6358343214        0.0778103018       14.4668677982  MEMB      51              0.0000000000
      5490        51  SAPC      H5X           -26.0778007488       -0.8481713182       14.8939200905  MEMB      51              0.0000000000
      5491        51  SAPC      H5Y           -24.7141044769       -0.2308321957       13.9163101458  MEMB      51              0.0000000000
      5492        51  SAPC      C36           -26.5981360155        0.6706820516       13.4173147150  MEMB      51              0.0000000000
      5493        51  SAPC      H6X           -26.8806699094        1.7149033591       13.6736795281  MEMB      51              0.0000000000
      5494        51  SAPC      H6Y           -27.5279705515        0.0590364654       13.3893998540  MEMB      51              0.0000000000
      5495        51  SAPC      C37           -25.9355943154        0.6457949432       12.0247583993  MEMB      51              0.0000000000
      5496        51  SAPC      H7X           -25.4479598668       -0.3394934150       11.8684438570  MEMB      51              0.0000000000
      5497        51  SAPC      H7Y           -25.1304857061        1.4093909849       12.0586238043  MEMB      51              0.0000000000
      5498        51  SAPC      C38           -26.8546870919        0.8921118831       10.8145665402  MEMB      51              0.0000000000
      5499        51  SAPC      H8X           -27.5496773299        1.7177638208       11.0632719492  MEMB      51              0.0000000000
      5500        51  SAPC      H8Y           -27.4708413339       -0.0094574888       10.6314291517  MEMB      51              0.0000000000
      5501        51  SAPC      C39           -26.0591098779        1.2584164716        9.5422106878  MEMB      51              0.0000000000
      5502        51  SAPC      H9X           -24.9864278529        1.0670515608        9.7653405677  MEMB      51              0.0000000000
      5503        51  SAPC      H9Y           -26.2075760270        2.3384184052        9.3326866219  MEMB      51              0.0000000000
      5504        51  SAPC      C310          -26.3132359336        0.4381872737        8.2781401928  MEMB      51              0.0000000000
      5505        51  SAPC      H10X          -27.3720475531        0.1131075492        8.2871546499  MEMB      51              0.0000000000
      5506        51  SAPC      H10Y          -25.6429613974       -0.4434846987        8.3403869806  MEMB      51              0.0000000000
      5507        51  SAPC      C311          -25.9604384956        1.0471491979        6.9096500798  MEMB      51              0.0000000000
      5508        51  SAPC      H11X          -26.0949289953        0.2460585844        6.1456673666  MEMB      51              0.0000000000
      5509        51  SAPC      H11Y          -24.8807883708        1.3124026108        6.8841701463  MEMB      51              0.0000000000
      5510        51  SAPC      C312          -26.8106637424        2.2552264075        6.4980687992  MEMB      51              0.0000000000
      5511        51  SAPC      H12X          -26.7172055589        2.4113923778        5.4003600874  MEMB      51              0.0000000000
      5512        51  SAPC      H12Y          -26.3667780554        3.1526322570        6.9890825990  MEMB      51              0.0000000000
      5513        51  SAPC      C313          -28.2950016732        2.1720074273        6.9149692465  MEMB      51              0.0000000000
      5514        51  SAPC      H13X          -28.7532638361        3.1720264993        6.7571114931  MEMB      51              0.0000000000
      5515        51  SAPC      H13Y          -28.3454124032        1.9962151685        8.0107291110  MEMB      51              0.0000000000
      5516        51  SAPC      C314          -29.1633408812        1.1112474255        6.1989337735  MEMB      51              0.0000000000
      5517        51  SAPC      H14X          -29.7202178486        0.5314601912        6.9715168236  MEMB      51              0.0000000000
      5518        51  SAPC      H14Y          -28.5312301244        0.3904075894        5.6364118117  MEMB      51              0.0000000000
      5519        51  SAPC      C315          -30.1964945996        1.7452862586        5.2479934258  MEMB      51              0.0000000000
      5520        51  SAPC      H15X          -30.7866187685        2.4752092000        5.8504526309  MEMB      51              0.0000000000
      5521        51  SAPC      H15Y          -30.9146537830        0.9907975257        4.8696539242  MEMB      51              0.0000000000
      5522        51  SAPC      C316          -29.5137081116        2.5093189061        4.1031069920  MEMB      51              0.0000000000
      5523        51  SAPC      H16X          -28.4348184597        2.2401012601        4.0840735306  MEMB      51              0.0000000000
      5524        51  SAPC      H16Y          -29.5876999914        3.5865732143        4.3781807706  MEMB      51              0.0000000000
      5525        51  SAPC      C317          -30.0298161703        2.3493673282        2.6652136632  MEMB      51              0.0000000000
      5526        51  SAPC      H17X          -31.0759982183        1.9965012280        2.6424228890  MEMB      51              0.0000000000
      5527        51  SAPC      H17Y          -29.4332527965        1.5682892958        2.1399946297  MEMB      51              0.0000000000
      5528        51  SAPC      C318          -29.9303231454        3.6753548113        1.9004599170  MEMB      51              0.0000000000
      5529        51  SAPC      H18X          -30.5211507555        3.6522356224        0.9616930997  MEMB      51              0.0000000000
      5530        51  SAPC      H18Y          -28.8685004900        3.8855365775        1.6516001887  MEMB      51              0.0000000000
      5531        51  SAPC      H18Z          -30.3137756960        4.5085549090        2.5282755397  MEMB      51              0.0000000000
      5532        52  POPC      N              -5.0144058241       29.6655923948       18.3147411768  MEMB      52              0.0000000000
      5533        52  POPC      C12            -5.9491157006       28.4914744150       18.5809070875  MEMB      52              0.0000000000
      5534        52  POPC      H12A           -5.4834153800       27.5666052718       18.2683315361  MEMB      52              0.0000000000
      5535        52  POPC      H12B           -6.8152841855       28.6529328359       17.9503372452  MEMB      52              0.0000000000
      5536        52  POPC      C13            -3.7761516051       29.5566556589       19.1487943858  MEMB      52              0.0000000000
      5537        52  POPC      H13A           -3.2474469537       28.6317638631       18.9439856644  MEMB      52              0.0000000000
      5538        52  POPC      H13B           -3.1090332066       30.3886522809       18.9412098611  MEMB      52              0.0000000000
      5539        52  POPC      H13C           -4.0274091330       29.5855387647       20.2073550053  MEMB      52              0.0000000000
      5540        52  POPC      C14            -4.6278240812       29.6758826189       16.8616893401  MEMB      52              0.0000000000
      5541        52  POPC      H14A           -4.1343832636       28.7609464492       16.5419220046  MEMB      52              0.0000000000
      5542        52  POPC      H14B           -5.5050852179       29.7699971434       16.2236287526  MEMB      52              0.0000000000
      5543        52  POPC      H14C           -3.9747017724       30.5063459552       16.6240834404  MEMB      52              0.0000000000
      5544        52  POPC      C15            -5.7541523268       30.9408612981       18.6064575648  MEMB      52              0.0000000000
      5545        52  POPC      H15A           -6.6180290419       31.0417759569       17.9469519865  MEMB      52              0.0000000000
      5546        52  POPC      H15B           -5.1301276053       31.8168520044       18.5526589005  MEMB      52              0.0000000000
      5547        52  POPC      H15C           -6.1794770109       30.8804550703       19.6090090361  MEMB      52              0.0000000000
      5548        52  POPC      C11            -6.5563620254       28.2651199009       19.9970513419  MEMB      52              0.0000000000
      5549        52  POPC      H11A           -5.7404685781       28.1019058636       20.7242046683  MEMB      52              0.0000000000
      5550        52  POPC      H11B           -7.1406478792       27.3112473218       19.9773942732  MEMB      52              0.0000000000
      5551        52  POPC      P              -8.8355691210       29.5224600460       19.8521022552  MEMB      52              0.0000000000
      5552        52  POPC      O13            -9.3736902288       30.8054044545       20.3534031425  MEMB      52              0.0000000000
      5553        52  POPC      O14            -9.5889867807       28.2730458271       19.9994158634  MEMB      52              0.0000000000
      5554        52  POPC      O12            -7.3760555243       29.3449865117       20.4479603979  MEMB      52              0.0000000000
      5555        52  POPC      O11            -8.5126625152       29.6753293903       18.3058594648  MEMB      52              0.0000000000
      5556        52  POPC      C1             -8.8616374964       28.5826437227       17.4443030421  MEMB      52              0.0000000000
      5557        52  POPC      HA             -9.9619049596       28.4847467167       17.4058764060  MEMB      52              0.0000000000
      5558        52  POPC      HB             -8.4348902429       27.6172270984       17.7940684204  MEMB      52              0.0000000000
      5559        52  POPC      C2             -8.3183748009       28.8770587671       16.0442495662  MEMB      52              0.0000000000
      5560        52  POPC      HS             -7.2942294604       29.2867554803       16.1739441034  MEMB      52              0.0000000000
      5561        52  POPC      O21            -9.2068175656       29.8145135200       15.4923284084  MEMB      52              0.0000000000
      5562        52  POPC      C21            -8.8303221670       31.0345513599       15.4088914556  MEMB      52              0.0000000000
      5563        52  POPC      O22            -7.7130121353       31.5046629946       15.5819108844  MEMB      52              0.0000000000
      5564        52  POPC      C22           -10.0579285003       31.8184289366       15.0134558585  MEMB      52              0.0000000000
      5565        52  POPC      H2R            -9.7001091100       32.6416821491       14.3763539565  MEMB      52              0.0000000000
      5566        52  POPC      H2S           -10.4921958050       32.2351935476       15.9492942029  MEMB      52              0.0000000000
      5567        52  POPC      C3             -8.2391165101       27.6912345214       15.0486580659  MEMB      52              0.0000000000
      5568        52  POPC      HX             -9.2512239078       27.2372738725       14.9614107164  MEMB      52              0.0000000000
      5569        52  POPC      HY             -7.5536016343       26.9065556789       15.4355049165  MEMB      52              0.0000000000
      5570        52  POPC      O31            -7.8348549697       28.1700247593       13.7415435502  MEMB      52              0.0000000000
      5571        52  POPC      C31            -6.5775055638       28.6092522052       13.6940268098  MEMB      52              0.0000000000
      5572        52  POPC      O32            -5.7240062299       28.3937074650       14.5392660106  MEMB      52              0.0000000000
      5573        52  POPC      C32            -6.3558690807       29.4562318725       12.4290610155  MEMB      52              0.0000000000
      5574        52  POPC      H2X            -6.8776411983       30.4217396471       12.5866550268  MEMB      52              0.0000000000
      5575        52  POPC      H2Y            -6.8301714939       28.9250394871       11.5807048565  MEMB      52              0.0000000000
      5576        52  POPC      C23           -11.1601408263       30.9949633134       14.2932033920  MEMB      52              0.0000000000
      5577        52  POPC      H3R           -12.0364618760       31.6535132186       14.0970331583  MEMB      52              0.0000000000
      5578        52  POPC      H3S           -11.4596215750       30.1783287171       14.9589353966  MEMB      52              0.0000000000
      5579        52  POPC      C24           -10.7598086291       30.2597151925       13.0147515621  MEMB      52              0.0000000000
      5580        52  POPC      H4R           -11.6283175538       29.6939029038       12.6081278779  MEMB      52              0.0000000000
      5581        52  POPC      H4S            -9.9604212355       29.5206039854       13.2416741782  MEMB      52              0.0000000000
      5582        52  POPC      C25           -10.2718985826       31.2601735159       12.0079830886  MEMB      52              0.0000000000
      5583        52  POPC      H5R            -9.5531369068       31.9287541854       12.5289887654  MEMB      52              0.0000000000
      5584        52  POPC      H5S           -11.1485897840       31.8582033861       11.6898249422  MEMB      52              0.0000000000
      5585        52  POPC      C26            -9.4986276504       30.6781084265       10.8402395918  MEMB      52              0.0000000000
      5586        52  POPC      H6R           -10.1825419690       30.4239541748       10.0041798335  MEMB      52              0.0000000000
      5587        52  POPC      H6S            -8.9879594199       29.7423665326       11.1617300860  MEMB      52              0.0000000000
      5588        52  POPC      C27            -8.4389448325       31.6984366779       10.4225173294  MEMB      52              0.0000000000
      5589        52  POPC      H7R            -7.4837426694       31.4086254532       10.8834792271  MEMB      52              0.0000000000
      5590        52  POPC      H7S            -8.6892866838       32.6957261709       10.8584466626  MEMB      52              0.0000000000
      5591        52  POPC      C28            -8.3569761954       31.9269104485        8.9164795844  MEMB      52              0.0000000000
      5592        52  POPC      H8R            -7.7348959143       32.8315677322        8.7408976446  MEMB      52              0.0000000000
      5593        52  POPC      H8S            -9.3811816111       32.2147410029        8.6237127925  MEMB      52              0.0000000000
      5594        52  POPC      C29            -7.8488757905       30.7904122979        8.0696202327  MEMB      52              0.0000000000
      5595        52  POPC      H91            -6.7864682783       30.5507571378        8.2006949957  MEMB      52              0.0000000000
      5596        52  POPC      C210           -8.5803454194       30.0593952425        7.2128250103  MEMB      52              0.0000000000
      5597        52  POPC      H101           -8.0712347433       29.3570325178        6.5331753418  MEMB      52              0.0000000000
      5598        52  POPC      C211          -10.0506722541       30.2565383500        6.9666776704  MEMB      52              0.0000000000
      5599        52  POPC      H11R          -10.5095196713       30.8049185592        7.8016984637  MEMB      52              0.0000000000
      5600        52  POPC      H11S          -10.5737951560       29.2831846817        6.9963275626  MEMB      52              0.0000000000
      5601        52  POPC      C212          -10.3948363195       30.9328226042        5.6295940489  MEMB      52              0.0000000000
      5602        52  POPC      H12R           -9.6554523137       31.7287591094        5.3793119829  MEMB      52              0.0000000000
      5603        52  POPC      H12S          -11.3882984371       31.4317893215        5.7117830077  MEMB      52              0.0000000000
      5604        52  POPC      C213          -10.4714481274       29.8582337936        4.5486908081  MEMB      52              0.0000000000
      5605        52  POPC      H13R          -10.8989363414       28.9386824807        5.0092422701  MEMB      52              0.0000000000
      5606        52  POPC      H13S           -9.4399154513       29.6168448133        4.2108118634  MEMB      52              0.0000000000
      5607        52  POPC      C214          -11.3570919966       30.1760408983        3.3482112307  MEMB      52              0.0000000000
      5608        52  POPC      H14R          -11.0779492841       31.1657926114        2.9261279731  MEMB      52              0.0000000000
      5609        52  POPC      H14S          -12.4203893937       30.2337062505        3.6565404904  MEMB      52              0.0000000000
      5610        52  POPC      C215          -11.1938936661       29.0793258121        2.2935728496  MEMB      52              0.0000000000
      5611        52  POPC      H15R          -11.7884566996       28.1807282664        2.5281322735  MEMB      52              0.0000000000
      5612        52  POPC      H15S          -10.1141527065       28.7954589127        2.2633125671  MEMB      52              0.0000000000
      5613        52  POPC      C216          -11.5514821546       29.5483530820        0.9036262834  MEMB      52              0.0000000000
      5614        52  POPC      H16R          -10.8216528466       30.3810104488        0.8222283168  MEMB      52              0.0000000000
      5615        52  POPC      H16S          -12.6156146529       29.8733817617        0.8624771087  MEMB      52              0.0000000000
      5616        52  POPC      C217          -11.2026385909       28.5706139823       -0.2020430762  MEMB      52              0.0000000000
      5617        52  POPC      H17R          -11.9064702233       27.7109972454       -0.1356170909  MEMB      52              0.0000000000
      5618        52  POPC      H17S          -10.1770822549       28.2745171379        0.1028225391  MEMB      52              0.0000000000
      5619        52  POPC      C218          -11.1118009254       28.9968664056       -1.6705296055  MEMB      52              0.0000000000
      5620        52  POPC      H18R          -10.6296695240       28.1850474312       -2.2548057805  MEMB      52              0.0000000000
      5621        52  POPC      H18S          -10.4990041568       29.9020237824       -1.8277107555  MEMB      52              0.0000000000
      5622        52  POPC      H18T          -12.1114146283       29.1446959443       -2.1043145120  MEMB      52              0.0000000000
      5623        52  POPC      C33            -4.8542952190       29.7194227348       12.1270948316  MEMB      52              0.0000000000
      5624        52  POPC      H3X            -4.3110218672       28.7491923480       12.2379405654  MEMB      52              0.0000000000
      5625        52  POPC      H3Y            -4.4320468791       30.4154583282       12.8855801251  MEMB      52              0.0000000000
      5626        52  POPC      C34            -4.5001291499       30.2356060851       10.7062799844  MEMB      52              0.0000000000
      5627        52  POPC      H4X            -4.8847128879       29.5491595734        9.9234877901  MEMB      52              0.0000000000
      5628        52  POPC      H4Y            -3.3995145040       30.1826725826       10.6649866234  MEMB      52              0.0000000000
      5629        52  POPC      C35            -4.8679680568       31.6936940273       10.3600856020  MEMB      52              0.0000000000
      5630        52  POPC      H5X            -4.9222670297       32.2856073774       11.2984610656  MEMB      52              0.0000000000
      5631        52  POPC      H5Y            -5.8643545309       31.6946446520        9.8939270110  MEMB      52              0.0000000000
      5632        52  POPC      C36            -3.9448149733       32.4215349361        9.3567519077  MEMB      52              0.0000000000
      5633        52  POPC      H6X            -3.1366822585       31.7562324782        8.9945028087  MEMB      52              0.0000000000
      5634        52  POPC      H6Y            -3.4689249930       33.2539654452        9.9094029241  MEMB      52              0.0000000000
      5635        52  POPC      C37            -4.6695955175       33.0380204098        8.1430563847  MEMB      52              0.0000000000
      5636        52  POPC      H7X            -4.1019044205       33.9339921023        7.7977869009  MEMB      52              0.0000000000
      5637        52  POPC      H7Y            -5.6765164993       33.3903252105        8.4475136729  MEMB      52              0.0000000000
      5638        52  POPC      C38            -4.7567778922       32.0729016934        6.9542889117  MEMB      52              0.0000000000
      5639        52  POPC      H8X            -5.0235743429       31.0550119871        7.3126452841  MEMB      52              0.0000000000
      5640        52  POPC      H8Y            -3.7426466138       31.9863495654        6.5030343551  MEMB      52              0.0000000000
      5641        52  POPC      C39            -5.7527976364       32.4967618205        5.8594767664  MEMB      52              0.0000000000
      5642        52  POPC      H9X            -5.6804490818       33.5879558202        5.6653004124  MEMB      52              0.0000000000
      5643        52  POPC      H9Y            -6.7921361248       32.2942137255        6.1964436427  MEMB      52              0.0000000000
      5644        52  POPC      C310           -5.4835948581       31.7253074288        4.5609316348  MEMB      52              0.0000000000
      5645        52  POPC      H10X           -5.2471013592       30.6743192280        4.8476499624  MEMB      52              0.0000000000
      5646        52  POPC      H10Y           -4.5817144782       32.1497503227        4.0666262904  MEMB      52              0.0000000000
      5647        52  POPC      C311           -6.6545314046       31.6967714996        3.5648748549  MEMB      52              0.0000000000
      5648        52  POPC      H11X           -7.0162872897       32.7319341404        3.3790656574  MEMB      52              0.0000000000
      5649        52  POPC      H11Y           -7.4951654207       31.1276966330        4.0216820312  MEMB      52              0.0000000000
      5650        52  POPC      C312           -6.2739687812       31.0641190868        2.2121968887  MEMB      52              0.0000000000
      5651        52  POPC      H12X           -5.5894498039       31.7646031463        1.6821611272  MEMB      52              0.0000000000
      5652        52  POPC      H12Y           -7.1853456296       30.9355582549        1.5863428749  MEMB      52              0.0000000000
      5653        52  POPC      C313           -5.5703247460       29.7054238727        2.3311511731  MEMB      52              0.0000000000
      5654        52  POPC      H13X           -4.7021345784       29.7983721163        3.0074025140  MEMB      52              0.0000000000
      5655        52  POPC      H13Y           -5.1733769775       29.3928265568        1.3396363023  MEMB      52              0.0000000000
      5656        52  POPC      C314           -6.4981168501       28.6132600048        2.8578339668  MEMB      52              0.0000000000
      5657        52  POPC      H14X           -7.2991309186       28.4591730690        2.1005217330  MEMB      52              0.0000000000
      5658        52  POPC      H14Y           -6.9927185862       28.9422471836        3.7985969205  MEMB      52              0.0000000000
      5659        52  POPC      C315           -5.7882759764       27.2835750427        3.1109812791  MEMB      52              0.0000000000
      5660        52  POPC      H15X           -5.1811810701       27.3590035478        4.0432446350  MEMB      52              0.0000000000
      5661        52  POPC      H15Y           -5.0907332495       27.0579803378        2.2710447605  MEMB      52              0.0000000000
      5662        52  POPC      C316           -6.8065470336       26.1554119148        3.2365832895  MEMB      52              0.0000000000
      5663        52  POPC      H16X           -6.3424979231       25.1674424023        3.4162285140  MEMB      52              0.0000000000
      5664        52  POPC      H16Y           -7.4017940327       26.0875228220        2.3004196127  MEMB      52              0.0000000000
      5665        52  POPC      H16Z           -7.4859130852       26.3708595224        4.0863034407  MEMB      52              0.0000000000
      5666        53  CHL1      C3              0.9437140655       30.2104398225       17.4305297681  MEMB      53              0.0000000000
      5667        53  CHL1      H3              0.5050679702       31.2346468535       17.3903157677  MEMB      53              0.0000000000
      5668        53  CHL1      O3              0.9564474938       29.7853108445       18.7813717523  MEMB      53              0.0000000000
      5669        53  CHL1      H3'             1.2028244653       30.5853462869       19.2953915395  MEMB      53              0.0000000000
      5670        53  CHL1      C4              0.0610181778       29.2706262024       16.5893353147  MEMB      53              0.0000000000
      5671        53  CHL1      H4A             0.3997203175       28.2263621869       16.7330900402  MEMB      53              0.0000000000
      5672        53  CHL1      H4B            -0.9768210549       29.3244889372       16.9878926005  MEMB      53              0.0000000000
      5673        53  CHL1      C5              0.1397586594       29.6610293729       15.1275113796  MEMB      53              0.0000000000
      5674        53  CHL1      C6             -0.9402135951       30.1306352500       14.4801124450  MEMB      53              0.0000000000
      5675        53  CHL1      H6             -1.9153748860       30.1923862764       14.9842922141  MEMB      53              0.0000000000
      5676        53  CHL1      C7             -0.9104999174       30.5559199176       13.0461750295  MEMB      53              0.0000000000
      5677        53  CHL1      H7A            -1.8771247472       30.3111006677       12.5594969237  MEMB      53              0.0000000000
      5678        53  CHL1      H7B            -0.7613731506       31.6561388310       12.9623874034  MEMB      53              0.0000000000
      5679        53  CHL1      C8              0.2493397465       29.8373603522       12.3152215652  MEMB      53              0.0000000000
      5680        53  CHL1      H8              0.0232304917       28.7502856119       12.3511945776  MEMB      53              0.0000000000
      5681        53  CHL1      C14             0.3321010918       30.2966289133       10.8743449993  MEMB      53              0.0000000000
      5682        53  CHL1      H14             0.6517864931       31.3710111602       10.9029057449  MEMB      53              0.0000000000
      5683        53  CHL1      C15            -0.9740197238       30.3059812668       10.0868816047  MEMB      53              0.0000000000
      5684        53  CHL1      H15A           -1.5302041931       29.3684373513       10.3081607068  MEMB      53              0.0000000000
      5685        53  CHL1      H15B           -1.5733696602       31.1965304750       10.3679306810  MEMB      53              0.0000000000
      5686        53  CHL1      C16            -0.5618151971       30.3265477456        8.6212260377  MEMB      53              0.0000000000
      5687        53  CHL1      H16A           -1.1328333779       29.5430937754        8.0764913295  MEMB      53              0.0000000000
      5688        53  CHL1      H16B           -0.7750131258       31.3089308416        8.1503759609  MEMB      53              0.0000000000
      5689        53  CHL1      C17             0.9664069163       30.0291384254        8.5940312968  MEMB      53              0.0000000000
      5690        53  CHL1      H17             1.4765484637       31.0133601613        8.4575826386  MEMB      53              0.0000000000
      5691        53  CHL1      C13             1.3517852350       29.5506930820       10.0264499984  MEMB      53              0.0000000000
      5692        53  CHL1      C18             1.1403193868       28.0195720247       10.1128779890  MEMB      53              0.0000000000
      5693        53  CHL1      H18A            0.1483164057       27.7462454280        9.7056955325  MEMB      53              0.0000000000
      5694        53  CHL1      H18B            1.9123105178       27.4682890863        9.5473873990  MEMB      53              0.0000000000
      5695        53  CHL1      H18C            1.2214459004       27.6483756931       11.1509717690  MEMB      53              0.0000000000
      5696        53  CHL1      C12             2.7154265114       29.9756630375       10.6109484945  MEMB      53              0.0000000000
      5697        53  CHL1      H12A            3.5547592141       29.5363867874       10.0454153204  MEMB      53              0.0000000000
      5698        53  CHL1      H12B            2.8110327093       31.0609392190       10.4816641822  MEMB      53              0.0000000000
      5699        53  CHL1      C11             2.8239513176       29.6641750673       12.1326306826  MEMB      53              0.0000000000
      5700        53  CHL1      H11A            2.9712450534       28.5724285057       12.1850127488  MEMB      53              0.0000000000
      5701        53  CHL1      H11B            3.7361350729       30.1449202594       12.5447872321  MEMB      53              0.0000000000
      5702        53  CHL1      C9              1.5903798714       30.0986014395       13.0079611499  MEMB      53              0.0000000000
      5703        53  CHL1      H9              1.6621646981       31.2062451074       13.0450260000  MEMB      53              0.0000000000
      5704        53  CHL1      C10             1.5682095438       29.6331326960       14.5033363361  MEMB      53              0.0000000000
      5705        53  CHL1      C19             2.3263163175       28.2844358372       14.6157958215  MEMB      53              0.0000000000
      5706        53  CHL1      H19A            2.1192228058       27.6248073435       13.7575247620  MEMB      53              0.0000000000
      5707        53  CHL1      H19B            3.4198355203       28.4901632649       14.6293566416  MEMB      53              0.0000000000
      5708        53  CHL1      H19C            2.0878421193       27.7356870684       15.5461800323  MEMB      53              0.0000000000
      5709        53  CHL1      C1              2.3346669691       30.6372843989       15.3967732817  MEMB      53              0.0000000000
      5710        53  CHL1      H1A             3.3613968268       30.7874640497       15.0036203002  MEMB      53              0.0000000000
      5711        53  CHL1      H1B             1.7879708903       31.6013256885       15.3441725701  MEMB      53              0.0000000000
      5712        53  CHL1      C2              2.3743867638       30.2394576313       16.8842247236  MEMB      53              0.0000000000
      5713        53  CHL1      H2A             2.9990078115       30.9423706644       17.4724015032  MEMB      53              0.0000000000
      5714        53  CHL1      H2B             2.8266180666       29.2320974438       16.9995138372  MEMB      53              0.0000000000
      5715        53  CHL1      C20             1.3007348893       29.1476563352        7.3793061904  MEMB      53              0.0000000000
      5716        53  CHL1      H20             0.7634347039       28.1768707115        7.4494407620  MEMB      53              0.0000000000
      5717        53  CHL1      C21             2.8178696914       28.8786317450        7.3737518027  MEMB      53              0.0000000000
      5718        53  CHL1      H21A            3.1359601112       28.4340475144        6.4092347981  MEMB      53              0.0000000000
      5719        53  CHL1      H21B            3.1396494573       28.1967119050        8.1780721829  MEMB      53              0.0000000000
      5720        53  CHL1      H21C            3.3481786233       29.8333464753        7.5298971545  MEMB      53              0.0000000000
      5721        53  CHL1      C22             0.8924639116       29.8180210060        6.0319138933  MEMB      53              0.0000000000
      5722        53  CHL1      H22A            0.5423741237       30.8611739225        6.1785316240  MEMB      53              0.0000000000
      5723        53  CHL1      H22B            1.8213707548       29.8582270563        5.4411454852  MEMB      53              0.0000000000
      5724        53  CHL1      C23            -0.0387565309       29.0832169532        5.0451174777  MEMB      53              0.0000000000
      5725        53  CHL1      H23A            0.4047942664       28.0916910805        4.8025928960  MEMB      53              0.0000000000
      5726        53  CHL1      H23B           -1.0433005202       28.9248917284        5.4883895623  MEMB      53              0.0000000000
      5727        53  CHL1      C24            -0.1473862278       29.9169621865        3.7458581073  MEMB      53              0.0000000000
      5728        53  CHL1      H24A           -0.7519717933       30.8259071668        3.9644098537  MEMB      53              0.0000000000
      5729        53  CHL1      H24B            0.8689904833       30.2615715643        3.4487213112  MEMB      53              0.0000000000
      5730        53  CHL1      C25            -0.7695697712       29.2168163869        2.5244124079  MEMB      53              0.0000000000
      5731        53  CHL1      H25            -0.1905015637       28.2921053945        2.2931211090  MEMB      53              0.0000000000
      5732        53  CHL1      C26            -2.2191121006       28.8486418507        2.8113028428  MEMB      53              0.0000000000
      5733        53  CHL1      H26A           -2.7319125119       29.7702365005        3.1578629939  MEMB      53              0.0000000000
      5734        53  CHL1      H26B           -2.7294701371       28.4741688210        1.8982848851  MEMB      53              0.0000000000
      5735        53  CHL1      H26C           -2.2891415529       28.0791161560        3.6063839534  MEMB      53              0.0000000000
      5736        53  CHL1      C27            -0.7122047822       30.1324598843        1.2914563893  MEMB      53              0.0000000000
      5737        53  CHL1      H27A           -1.2222490134       29.6505862440        0.4324996857  MEMB      53              0.0000000000
      5738        53  CHL1      H27B           -1.1988800017       31.1102785505        1.4920864726  MEMB      53              0.0000000000
      5739        53  CHL1      H27C            0.3411803217       30.3145164436        1.0111598385  MEMB      53              0.0000000000
      5740        54  CHL1      C3            -24.6080459443       18.4298623938       17.5050612434  MEMB      54              0.0000000000
      5741        54  CHL1      H3            -23.5257483099       18.5812660332       17.2822708995  MEMB      54              0.0000000000
      5742        54  CHL1      O3            -24.8497898938       18.5088245670       18.9006474464  MEMB      54              0.0000000000
      5743        54  CHL1      H3'           -24.0912234013       18.9297396052       19.3261663550  MEMB      54              0.0000000000
      5744        54  CHL1      C4            -25.4458098228       19.5110428807       16.7910874859  MEMB      54              0.0000000000
      5745        54  CHL1      H4A           -26.4695160342       19.4786573112       17.2263027275  MEMB      54              0.0000000000
      5746        54  CHL1      H4B           -25.0261985241       20.5028066115       17.0739672222  MEMB      54              0.0000000000
      5747        54  CHL1      C5            -25.5318801797       19.3419418396       15.2830404991  MEMB      54              0.0000000000
      5748        54  CHL1      C6            -25.2652638211       20.3422073209       14.4258433510  MEMB      54              0.0000000000
      5749        54  CHL1      H6            -24.9820536254       21.3325149958       14.8117353804  MEMB      54              0.0000000000
      5750        54  CHL1      C7            -25.4176268868       20.2283093659       12.9323343779  MEMB      54              0.0000000000
      5751        54  CHL1      H7A           -25.9579973654       21.1107603109       12.5226718090  MEMB      54              0.0000000000
      5752        54  CHL1      H7B           -24.4065336816       20.2170220185       12.4681081029  MEMB      54              0.0000000000
      5753        54  CHL1      C8            -26.1579016143       18.9378103940       12.4791288653  MEMB      54              0.0000000000
      5754        54  CHL1      H8            -27.2457840239       19.0889499711       12.6357609011  MEMB      54              0.0000000000
      5755        54  CHL1      C14           -25.8861708854       18.6697576497       11.0133719707  MEMB      54              0.0000000000
      5756        54  CHL1      H14           -24.7845794121       18.4749489902       10.9383947829  MEMB      54              0.0000000000
      5757        54  CHL1      C15           -26.1485526418       19.8152234704       10.0203485383  MEMB      54              0.0000000000
      5758        54  CHL1      H15A          -27.1262604397       20.2934290386       10.2496671666  MEMB      54              0.0000000000
      5759        54  CHL1      H15B          -25.3582224732       20.5904451991       10.0497246208  MEMB      54              0.0000000000
      5760        54  CHL1      C16           -26.2261086038       19.1050642067        8.6605037133  MEMB      54              0.0000000000
      5761        54  CHL1      H16A          -27.1708338616       19.4466584586        8.2015136835  MEMB      54              0.0000000000
      5762        54  CHL1      H16B          -25.3860904304       19.3807206678        7.9928933832  MEMB      54              0.0000000000
      5763        54  CHL1      C17           -26.1916736703       17.5675712458        8.9583087856  MEMB      54              0.0000000000
      5764        54  CHL1      H17           -25.1078156002       17.2933921799        8.9332501099  MEMB      54              0.0000000000
      5765        54  CHL1      C13           -26.5594603558       17.4203738919       10.4462312492  MEMB      54              0.0000000000
      5766        54  CHL1      C18           -28.0936055087       17.4945096569       10.6083954921  MEMB      54              0.0000000000
      5767        54  CHL1      H18A          -28.4538782945       18.5099584427       10.3871688991  MEMB      54              0.0000000000
      5768        54  CHL1      H18B          -28.6205604279       16.7762501439        9.9519621862  MEMB      54              0.0000000000
      5769        54  CHL1      H18C          -28.3995137696       17.2683441420       11.6456953569  MEMB      54              0.0000000000
      5770        54  CHL1      C12           -25.9834337673       16.1989167559       11.1829331692  MEMB      54              0.0000000000
      5771        54  CHL1      H12A          -26.4840272344       15.2729012123       10.8308811108  MEMB      54              0.0000000000
      5772        54  CHL1      H12B          -24.8974242848       16.1214274896       10.9578859304  MEMB      54              0.0000000000
      5773        54  CHL1      C11           -26.1587004029       16.3498342669       12.7128770082  MEMB      54              0.0000000000
      5774        54  CHL1      H11A          -27.2288874046       16.1920704198       12.9518836687  MEMB      54              0.0000000000
      5775        54  CHL1      H11B          -25.5956062375       15.5288805639       13.2026273046  MEMB      54              0.0000000000
      5776        54  CHL1      C9            -25.6812744057       17.7285245267       13.2832936281  MEMB      54              0.0000000000
      5777        54  CHL1      H9            -24.5723678356       17.7190539196       13.1350956312  MEMB      54              0.0000000000
      5778        54  CHL1      C10           -25.8978981325       17.9217577391       14.8061282249  MEMB      54              0.0000000000
      5779        54  CHL1      C19           -27.3950047668       17.7488958499       15.1443785748  MEMB      54              0.0000000000
      5780        54  CHL1      H19A          -27.9970668716       18.5044424270       14.6054433204  MEMB      54              0.0000000000
      5781        54  CHL1      H19B          -27.7750801010       16.7438531433       14.8826029594  MEMB      54              0.0000000000
      5782        54  CHL1      H19C          -27.5918040616       17.8831509731       16.2263260252  MEMB      54              0.0000000000
      5783        54  CHL1      C1            -25.0338985177       16.8724484146       15.5501704828  MEMB      54              0.0000000000
      5784        54  CHL1      H1A           -25.4082894330       15.8547892459       15.3133787452  MEMB      54              0.0000000000
      5785        54  CHL1      H1B           -23.9892216420       16.9483223620       15.1727075086  MEMB      54              0.0000000000
      5786        54  CHL1      C2            -25.0265007492       17.0244927674       17.0738932863  MEMB      54              0.0000000000
      5787        54  CHL1      H2A           -24.3328840892       16.2809411987       17.5261870343  MEMB      54              0.0000000000
      5788        54  CHL1      H2B           -26.0468602970       16.8225920212       17.4702569432  MEMB      54              0.0000000000
      5789        54  CHL1      C20           -26.9087950288       16.6550888188        7.9383998106  MEMB      54              0.0000000000
      5790        54  CHL1      H20           -27.3058384528       15.7574440884        8.4630624133  MEMB      54              0.0000000000
      5791        54  CHL1      C21           -25.8312551598       16.1664437103        6.9402220435  MEMB      54              0.0000000000
      5792        54  CHL1      H21A          -26.2528554148       15.4187154333        6.2382203014  MEMB      54              0.0000000000
      5793        54  CHL1      H21B          -24.9854024331       15.6869593914        7.4787340202  MEMB      54              0.0000000000
      5794        54  CHL1      H21C          -25.4328468519       17.0219984308        6.3550374144  MEMB      54              0.0000000000
      5795        54  CHL1      C22           -28.0704090897       17.3776103700        7.2030728007  MEMB      54              0.0000000000
      5796        54  CHL1      H22A          -28.7420795634       17.8613552018        7.9445756884  MEMB      54              0.0000000000
      5797        54  CHL1      H22B          -27.5838444052       18.1815032943        6.6020746437  MEMB      54              0.0000000000
      5798        54  CHL1      C23           -28.9565270295       16.6129579014        6.2076270340  MEMB      54              0.0000000000
      5799        54  CHL1      H23A          -28.3192304644       15.9632742358        5.5745229966  MEMB      54              0.0000000000
      5800        54  CHL1      H23B          -29.7004353361       15.9729215424        6.7280779978  MEMB      54              0.0000000000
      5801        54  CHL1      C24           -29.6853840369       17.6420665600        5.3240912765  MEMB      54              0.0000000000
      5802        54  CHL1      H24A          -30.5410502335       18.0910564583        5.8769736204  MEMB      54              0.0000000000
      5803        54  CHL1      H24B          -28.9867396560       18.4746044563        5.0881645465  MEMB      54              0.0000000000
      5804        54  CHL1      C25           -30.1930653886       17.1360508563        3.9709161968  MEMB      54              0.0000000000
      5805        54  CHL1      H25           -30.9637907610       16.3656408052        4.1575365339  MEMB      54              0.0000000000
      5806        54  CHL1      C26           -30.8866540301       18.3055545799        3.2682482121  MEMB      54              0.0000000000
      5807        54  CHL1      H26A          -31.8415984563       18.5889300799        3.7421687585  MEMB      54              0.0000000000
      5808        54  CHL1      H26B          -30.2286055634       19.1919860651        3.3336906348  MEMB      54              0.0000000000
      5809        54  CHL1      H26C          -31.0832988554       18.0804232534        2.1985875949  MEMB      54              0.0000000000
      5810        54  CHL1      C27           -29.0842024076       16.4983318286        3.1036903003  MEMB      54              0.0000000000
      5811        54  CHL1      H27A          -28.1568924162       17.1062518988        3.1137578827  MEMB      54              0.0000000000
      5812        54  CHL1      H27B          -28.8436993213       15.4774968868        3.4684264176  MEMB      54              0.0000000000
      5813        54  CHL1      H27C          -29.4155580967       16.4064123330        2.0491737880  MEMB      54              0.0000000000
      5814        55  OSM       N              19.5939356992      -23.5530971681       22.6559819905  MEMB      55              0.0000000000
      5815        55  OSM       C15            19.9340100445      -25.0076140917       22.7990407675  MEMB      55              0.0000000000
      5816        55  OSM       H15A           20.7595941940      -25.2437373827       22.1331006160  MEMB      55              0.0000000000
      5817        55  OSM       H15B           19.0749552396      -25.6296358071       22.5812975493  MEMB      55              0.0000000000
      5818        55  OSM       H15C           20.2309446549      -25.2426944833       23.8195725273  MEMB      55              0.0000000000
      5819        55  OSM       C14            18.4098105529      -23.2570277904       23.5334318568  MEMB      55              0.0000000000
      5820        55  OSM       H14A           18.0860023560      -22.2292389021       23.4530532319  MEMB      55              0.0000000000
      5821        55  OSM       H14B           18.6269932423      -23.4552341897       24.5765497112  MEMB      55              0.0000000000
      5822        55  OSM       H14C           17.5659199308      -23.9065666409       23.2606621036  MEMB      55              0.0000000000
      5823        55  OSM       C13            20.8167434223      -22.7766915977       23.0656908088  MEMB      55              0.0000000000
      5824        55  OSM       H13A           21.6490337264      -23.0532215332       22.4117575704  MEMB      55              0.0000000000
      5825        55  OSM       H13B           21.0817862316      -22.9730979784       24.0900798620  MEMB      55              0.0000000000
      5826        55  OSM       H13C           20.6879016163      -21.7106332886       22.9051199149  MEMB      55              0.0000000000
      5827        55  OSM       C12            19.2768869257      -23.1756111152       21.2144153518  MEMB      55              0.0000000000
      5828        55  OSM       H12A           19.4192954891      -22.0946225441       21.0940714545  MEMB      55              0.0000000000
      5829        55  OSM       H12B           18.2326366269      -23.3565117799       21.0090422798  MEMB      55              0.0000000000
      5830        55  OSM       C11            20.1668569682      -23.7979692790       20.1144875034  MEMB      55              0.0000000000
      5831        55  OSM       H11A           19.7934208156      -23.4991598873       19.1028598576  MEMB      55              0.0000000000
      5832        55  OSM       H11B           20.0700288439      -24.9001123180       20.1651696064  MEMB      55              0.0000000000
      5833        55  OSM       P              22.0176148983      -21.9541431324       19.8846277640  MEMB      55              0.0000000000
      5834        55  OSM       O13            20.8601017235      -21.0520840573       20.1408423053  MEMB      55              0.0000000000
      5835        55  OSM       O14            23.2821888752      -21.6585827377       20.5846166157  MEMB      55              0.0000000000
      5836        55  OSM       O11            22.2623500622      -22.1700499828       18.3301418220  MEMB      55              0.0000000000
      5837        55  OSM       O12            21.5379585667      -23.4290193864       20.3086957868  MEMB      55              0.0000000000
      5838        55  OSM       C1S            22.7989598731      -23.4532519472       17.9745364230  MEMB      55              0.0000000000
      5839        55  OSM       H1S            22.1522501880      -24.2964082422       18.3000557850  MEMB      55              0.0000000000
      5840        55  OSM       H1T            23.8109132397      -23.6145068808       18.4181296461  MEMB      55              0.0000000000
      5841        55  OSM       NF             22.8396083599      -24.8511015192       15.9338961761  MEMB      55              0.0000000000
      5842        55  OSM       HNF            23.6644085410      -25.1984233926       15.5046090790  MEMB      55              0.0000000000
      5843        55  OSM       C2S            22.8947456106      -23.4888889823       16.4551289854  MEMB      55              0.0000000000
      5844        55  OSM       H2S            22.0318273674      -22.9266017337       16.0248222122  MEMB      55              0.0000000000
      5845        55  OSM       C3S            24.2082207951      -22.7462011729       16.0931831908  MEMB      55              0.0000000000
      5846        55  OSM       H3S            25.0711673711      -23.2756227638       16.5575432159  MEMB      55              0.0000000000
      5847        55  OSM       O3             24.2740715901      -21.3897997831       16.5257097323  MEMB      55              0.0000000000
      5848        55  OSM       HO3            23.5690616766      -21.3204480780       17.1882476655  MEMB      55              0.0000000000
      5849        55  OSM       C4S            24.3534815110      -22.8265355307       14.6113497621  MEMB      55              0.0000000000
      5850        55  OSM       H4S            25.0542762151      -23.5926111422       14.2550360096  MEMB      55              0.0000000000
      5851        55  OSM       C5S            23.7434691777      -22.0262318533       13.7260306875  MEMB      55              0.0000000000
      5852        55  OSM       H5S            23.1305899085      -21.1770182664       14.0721467958  MEMB      55              0.0000000000
      5853        55  OSM       C6S            23.9235841274      -22.1686147497       12.2576783705  MEMB      55              0.0000000000
      5854        55  OSM       H6S            22.9323497627      -22.2756302786       11.7657717961  MEMB      55              0.0000000000
      5855        55  OSM       H6T            24.5232014150      -23.0757347299       12.0037788819  MEMB      55              0.0000000000
      5856        55  OSM       C7S            24.6433557624      -20.9762722556       11.6585398652  MEMB      55              0.0000000000
      5857        55  OSM       H7S            25.6826432979      -20.9457724985       12.0579176007  MEMB      55              0.0000000000
      5858        55  OSM       H7T            24.1554426109      -20.0030041762       11.8887610271  MEMB      55              0.0000000000
      5859        55  OSM       C8S            24.7039146115      -21.1797269778       10.1590695667  MEMB      55              0.0000000000
      5860        55  OSM       H8S            24.9631679720      -22.2346134824        9.9223367721  MEMB      55              0.0000000000
      5861        55  OSM       H8T            25.5189660895      -20.5717649458        9.7460456649  MEMB      55              0.0000000000
      5862        55  OSM       C9S            23.4411319104      -20.7596113579        9.4093744678  MEMB      55              0.0000000000
      5863        55  OSM       H9S            23.0229665465      -19.8182015275        9.8036551458  MEMB      55              0.0000000000
      5864        55  OSM       H9T            22.6575889154      -21.5221768231        9.5633914421  MEMB      55              0.0000000000
      5865        55  OSM       C10S           23.8946336618      -20.5852605054        7.9642709583  MEMB      55              0.0000000000
      5866        55  OSM       H10S           24.4459160347      -21.5132640236        7.6790499143  MEMB      55              0.0000000000
      5867        55  OSM       H10T           24.6260004269      -19.7587744507        7.9321020462  MEMB      55              0.0000000000
      5868        55  OSM       C11S           22.8702803139      -20.2896353030        6.8857308894  MEMB      55              0.0000000000
      5869        55  OSM       H11S           22.5164959481      -19.2407850524        6.9441433253  MEMB      55              0.0000000000
      5870        55  OSM       H11T           21.9766652330      -20.9409479424        6.9825123196  MEMB      55              0.0000000000
      5871        55  OSM       C12S           23.5646382104      -20.5411437848        5.5442230064  MEMB      55              0.0000000000
      5872        55  OSM       H12S           24.0202963435      -21.5543428767        5.5129824568  MEMB      55              0.0000000000
      5873        55  OSM       H12T           24.3965818141      -19.8472975992        5.4063663273  MEMB      55              0.0000000000
      5874        55  OSM       C13S           22.6213357390      -20.3540157749        4.3923935973  MEMB      55              0.0000000000
      5875        55  OSM       H13S           22.6268600832      -19.2911234471        4.0564641090  MEMB      55              0.0000000000
      5876        55  OSM       H13T           21.5979504965      -20.6043615086        4.7560537604  MEMB      55              0.0000000000
      5877        55  OSM       C14S           22.9027973419      -21.2574245559        3.2078494179  MEMB      55              0.0000000000
      5878        55  OSM       H14S           23.2128868327      -22.2832077131        3.5053917821  MEMB      55              0.0000000000
      5879        55  OSM       H14T           23.7460967727      -20.8225927148        2.6303186524  MEMB      55              0.0000000000
      5880        55  OSM       C15S           21.5728832169      -21.3074295302        2.4637300289  MEMB      55              0.0000000000
      5881        55  OSM       H15S           21.0683875318      -20.3191577599        2.5951394228  MEMB      55              0.0000000000
      5882        55  OSM       H15T           20.9250456684      -22.0759529255        2.9445137952  MEMB      55              0.0000000000
      5883        55  OSM       C16S           21.6901187025      -21.5558181856        0.9794961492  MEMB      55              0.0000000000
      5884        55  OSM       H16S           20.6689390389      -21.5131603889        0.5292642624  MEMB      55              0.0000000000
      5885        55  OSM       H16T           22.1188869497      -22.5666145830        0.8186390611  MEMB      55              0.0000000000
      5886        55  OSM       C17S           22.6127397127      -20.5744224926        0.2769621143  MEMB      55              0.0000000000
      5887        55  OSM       H17S           23.6568402214      -20.7409565423        0.6261603061  MEMB      55              0.0000000000
      5888        55  OSM       H17T           22.3312823380      -19.5269035022        0.5186211234  MEMB      55              0.0000000000
      5889        55  OSM       C18S           22.5819384555      -20.8282107816       -1.2134026746  MEMB      55              0.0000000000
      5890        55  OSM       H18S           23.1235520588      -20.0552598941       -1.7798579492  MEMB      55              0.0000000000
      5891        55  OSM       H18T           21.5462834435      -20.8320574364       -1.6021226873  MEMB      55              0.0000000000
      5892        55  OSM       H18U           23.0691103709      -21.8072400444       -1.3994987491  MEMB      55              0.0000000000
      5893        55  OSM       C1F            21.7507873136      -25.6236750821       15.9675502275  MEMB      55              0.0000000000
      5894        55  OSM       OF             20.8076200201      -25.4505300981       16.7385510580  MEMB      55              0.0000000000
      5895        55  OSM       C2F            21.7803066836      -26.7906329211       15.0618478426  MEMB      55              0.0000000000
      5896        55  OSM       H2F            21.2765793570      -27.6252487424       15.5857281719  MEMB      55              0.0000000000
      5897        55  OSM       H2G            22.8240496880      -27.0758603983       14.8509417620  MEMB      55              0.0000000000
      5898        55  OSM       C3F            21.0064772226      -26.5604537798       13.7599134948  MEMB      55              0.0000000000
      5899        55  OSM       H3F            20.0036800915      -26.1294225359       13.9652466930  MEMB      55              0.0000000000
      5900        55  OSM       H3G            20.8637734920      -27.5860501896       13.3381636049  MEMB      55              0.0000000000
      5901        55  OSM       C4F            21.6729896885      -25.7199419875       12.6704594971  MEMB      55              0.0000000000
      5902        55  OSM       H4F            22.7370027965      -26.0133271635       12.5662137344  MEMB      55              0.0000000000
      5903        55  OSM       H4G            21.6365374016      -24.6327852110       12.9059124687  MEMB      55              0.0000000000
      5904        55  OSM       C5F            20.9487011138      -26.0258329380       11.3549260103  MEMB      55              0.0000000000
      5905        55  OSM       H5F            19.9834429423      -25.4770413031       11.3143631762  MEMB      55              0.0000000000
      5906        55  OSM       H5G            20.7306027731      -27.1144436307       11.3467803836  MEMB      55              0.0000000000
      5907        55  OSM       C6F            21.7631891182      -25.8192039971       10.0923388396  MEMB      55              0.0000000000
      5908        55  OSM       H6F            21.0954754648      -25.8035682155        9.2007199070  MEMB      55              0.0000000000
      5909        55  OSM       H6G            22.4409905054      -26.6890087036        9.9654698399  MEMB      55              0.0000000000
      5910        55  OSM       C7F            22.6408369616      -24.5849014369       10.1346430200  MEMB      55              0.0000000000
      5911        55  OSM       H7F            23.3963915646      -24.6981581470       10.9432816914  MEMB      55              0.0000000000
      5912        55  OSM       H7G            22.0234777590      -23.6910389490       10.3786758008  MEMB      55              0.0000000000
      5913        55  OSM       C8F            23.3996577486      -24.4800145734        8.8173920366  MEMB      55              0.0000000000
      5914        55  OSM       H8F            23.4659908551      -25.4894827426        8.3540213514  MEMB      55              0.0000000000
      5915        55  OSM       H8G            24.4364609584      -24.1313959453        9.0147478009  MEMB      55              0.0000000000
      5916        55  OSM       C9F            22.7016888915      -23.5302108681        7.9116281541  MEMB      55              0.0000000000
      5917        55  OSM       H9F            21.9542963509      -22.8706316459        8.3763703925  MEMB      55              0.0000000000
      5918        55  OSM       C10F           22.7737924242      -23.5410129184        6.5914531080  MEMB      55              0.0000000000
      5919        55  OSM       H10F           22.1844910994      -22.7945929086        6.0360314266  MEMB      55              0.0000000000
      5920        55  OSM       C11F           23.5386906285      -24.4907944287        5.7290085422  MEMB      55              0.0000000000
      5921        55  OSM       H11F           24.3782045455      -24.9782046247        6.2674625550  MEMB      55              0.0000000000
      5922        55  OSM       H11G           23.9557051195      -23.9608638629        4.8458744939  MEMB      55              0.0000000000
      5923        55  OSM       C12F           22.4654378473      -25.5138721743        5.2933738028  MEMB      55              0.0000000000
      5924        55  OSM       H12F           22.1949759689      -26.1436142888        6.1736892403  MEMB      55              0.0000000000
      5925        55  OSM       H12G           22.9353620619      -26.1746332428        4.5361298783  MEMB      55              0.0000000000
      5926        55  OSM       C13F           21.1989280074      -24.7945587730        4.7469416092  MEMB      55              0.0000000000
      5927        55  OSM       H13F           21.5165756580      -24.1029383309        3.9369375343  MEMB      55              0.0000000000
      5928        55  OSM       H13G           20.7386752268      -24.1937073864        5.5690037109  MEMB      55              0.0000000000
      5929        55  OSM       C14F           19.9595521497      -25.5734479216        4.3168387182  MEMB      55              0.0000000000
      5930        55  OSM       H14F           19.0881722118      -24.8950898782        4.5103033375  MEMB      55              0.0000000000
      5931        55  OSM       H14G           19.7937864137      -26.4596001569        4.9451270347  MEMB      55              0.0000000000
      5932        55  OSM       C15F           19.8979619706      -25.8823090713        2.8276668297  MEMB      55              0.0000000000
      5933        55  OSM       H15F           20.1544815572      -24.9727102303        2.2401619379  MEMB      55              0.0000000000
      5934        55  OSM       H15G           18.8480677397      -26.1467932037        2.6168398659  MEMB      55              0.0000000000
      5935        55  OSM       C16F           20.7498133909      -27.0781863498        2.4156669780  MEMB      55              0.0000000000
      5936        55  OSM       H16F           20.4877704410      -27.9270888322        3.0848564627  MEMB      55              0.0000000000
      5937        55  OSM       H16G           21.8136920426      -26.7931605617        2.5736337793  MEMB      55              0.0000000000
      5938        55  OSM       C17F           20.5719096673      -27.4874313852        0.9528473790  MEMB      55              0.0000000000
      5939        55  OSM       H17F           20.5040745855      -26.5448570928        0.3876738406  MEMB      55              0.0000000000
      5940        55  OSM       H17G           19.6142760833      -28.0252647146        0.7842569074  MEMB      55              0.0000000000
      5941        55  OSM       C18F           21.7516088358      -28.2430354918        0.3519216075  MEMB      55              0.0000000000
      5942        55  OSM       H18F           21.6390592688      -28.2621155902       -0.7551477933  MEMB      55              0.0000000000
      5943        55  OSM       H18G           21.8331894976      -29.2849621332        0.7305527272  MEMB      55              0.0000000000
      5944        55  OSM       H18H           22.6955866171      -27.7043330491        0.5866989902  MEMB      55              0.0000000000
      5945        56  SAPC      N             -16.2502534658       27.3959499042       19.4570073760  MEMB      56              0.0000000000
      5946        56  SAPC      C12           -14.9433886916       28.0697284245       19.1836220588  MEMB      56              0.0000000000
      5947        56  SAPC      H12A          -14.9894664750       28.6309585562       18.2655285231  MEMB      56              0.0000000000
      5948        56  SAPC      H12B          -14.1942712454       27.3000016744       18.9971800112  MEMB      56              0.0000000000
      5949        56  SAPC      C13           -17.3323357613       28.3875990777       19.6371341485  MEMB      56              0.0000000000
      5950        56  SAPC      H13A          -17.1177066084       29.0260263487       20.4895506960  MEMB      56              0.0000000000
      5951        56  SAPC      H13B          -17.5408606726       28.9812933776       18.7621576522  MEMB      56              0.0000000000
      5952        56  SAPC      H13C          -18.2524846471       27.8435379057       19.8869847585  MEMB      56              0.0000000000
      5953        56  SAPC      C14           -16.6241340890       26.4830216109       18.3730609134  MEMB      56              0.0000000000
      5954        56  SAPC      H14A          -16.7830564820       26.9779937630       17.4153697285  MEMB      56              0.0000000000
      5955        56  SAPC      H14B          -15.8603681301       25.7282451190       18.2510728194  MEMB      56              0.0000000000
      5956        56  SAPC      H14C          -17.5231411653       25.9110276877       18.5934539761  MEMB      56              0.0000000000
      5957        56  SAPC      C15           -16.1812073377       26.5374221626       20.6829343260  MEMB      56              0.0000000000
      5958        56  SAPC      H15A          -17.1742979416       26.3820024886       21.0761075706  MEMB      56              0.0000000000
      5959        56  SAPC      H15B          -15.7010771504       25.5898209649       20.4693718450  MEMB      56              0.0000000000
      5960        56  SAPC      H15C          -15.5949711935       27.0448706004       21.4495987364  MEMB      56              0.0000000000
      5961        56  SAPC      C11           -14.4038497587       28.9574134348       20.3073945539  MEMB      56              0.0000000000
      5962        56  SAPC      H11A          -15.1877744728       29.6692531381       20.6459648652  MEMB      56              0.0000000000
      5963        56  SAPC      H11B          -13.5551213568       29.5782129213       19.9214859413  MEMB      56              0.0000000000
      5964        56  SAPC      P             -12.5214249109       27.7359749549       21.5802319360  MEMB      56              0.0000000000
      5965        56  SAPC      O13           -11.8757638771       28.9638606497       22.1104764323  MEMB      56              0.0000000000
      5966        56  SAPC      O14           -12.3865711257       26.5452029438       22.4603572370  MEMB      56              0.0000000000
      5967        56  SAPC      O12           -14.0302284408       28.1083084783       21.3916077525  MEMB      56              0.0000000000
      5968        56  SAPC      O11           -12.1243248529       27.3602305067       20.1231744511  MEMB      56              0.0000000000
      5969        56  SAPC      C1            -12.3283150432       26.1457594092       19.4158997881  MEMB      56              0.0000000000
      5970        56  SAPC      HA            -11.6391365421       25.3633397060       19.7917699289  MEMB      56              0.0000000000
      5971        56  SAPC      HB            -13.3744963141       25.7834005054       19.5150145830  MEMB      56              0.0000000000
      5972        56  SAPC      C2            -11.9789824554       26.4458027829       17.9350354297  MEMB      56              0.0000000000
      5973        56  SAPC      HS            -10.9050501145       26.7431899480       17.9621426003  MEMB      56              0.0000000000
      5974        56  SAPC      O21           -12.8091637877       27.5484135697       17.5543904726  MEMB      56              0.0000000000
      5975        56  SAPC      C21           -12.4050652099       28.1696932650       16.4865194738  MEMB      56              0.0000000000
      5976        56  SAPC      O22           -11.4955632609       27.8303100591       15.7548587508  MEMB      56              0.0000000000
      5977        56  SAPC      C22           -13.3281252602       29.3557423914       16.3041243560  MEMB      56              0.0000000000
      5978        56  SAPC      H2R           -13.9852143557       29.4344200553       17.1817839329  MEMB      56              0.0000000000
      5979        56  SAPC      H2S           -12.7641506317       30.3025166739       16.3275631910  MEMB      56              0.0000000000
      5980        56  SAPC      C3            -12.1376082702       25.2687922206       16.9084582428  MEMB      56              0.0000000000
      5981        56  SAPC      HX            -12.1448206247       24.3027744041       17.4582075091  MEMB      56              0.0000000000
      5982        56  SAPC      HY            -11.2119448819       25.2847253014       16.2844343808  MEMB      56              0.0000000000
      5983        56  SAPC      O31           -13.2501026458       25.4037568458       15.9822235535  MEMB      56              0.0000000000
      5984        56  SAPC      C31           -14.4102519166       25.0825302567       16.5342645870  MEMB      56              0.0000000000
      5985        56  SAPC      O32           -14.5438614595       24.6752273093       17.6742217794  MEMB      56              0.0000000000
      5986        56  SAPC      C32           -15.5639294379       25.3106489251       15.5519292903  MEMB      56              0.0000000000
      5987        56  SAPC      H2X           -15.3522030434       26.1887487315       14.9160268378  MEMB      56              0.0000000000
      5988        56  SAPC      H2Y           -16.4791987244       25.5430735639       16.1106166980  MEMB      56              0.0000000000
      5989        56  SAPC      C23           -14.1310464196       29.1521825117       15.0144696308  MEMB      56              0.0000000000
      5990        56  SAPC      H3R           -14.4942423792       28.1005214773       14.9482230759  MEMB      56              0.0000000000
      5991        56  SAPC      H3S           -13.4878742457       29.3161627786       14.1187579927  MEMB      56              0.0000000000
      5992        56  SAPC      C24           -15.3470888545       30.0697865852       14.9673111995  MEMB      56              0.0000000000
      5993        56  SAPC      H4R           -15.7964269131       29.9533576660       13.9543632617  MEMB      56              0.0000000000
      5994        56  SAPC      H4S           -14.9769611637       31.1197226105       15.0293526452  MEMB      56              0.0000000000
      5995        56  SAPC      C25           -16.3194046174       29.7608679058       16.0888445267  MEMB      56              0.0000000000
      5996        56  SAPC      H5R           -15.9839279644       30.0542075022       17.0953091345  MEMB      56              0.0000000000
      5997        56  SAPC      C26           -17.5626393547       29.2697718123       15.9576478589  MEMB      56              0.0000000000
      5998        56  SAPC      H6R           -18.2184612696       29.2911570243       16.8338218228  MEMB      56              0.0000000000
      5999        56  SAPC      C27           -18.2085030047       28.9466332191       14.6393419472  MEMB      56              0.0000000000
      6000        56  SAPC      H7R           -17.4352463041       28.6675764534       13.8901318122  MEMB      56              0.0000000000
      6001        56  SAPC      H7S           -18.5746442221       29.9396774478       14.3816632494  MEMB      56              0.0000000000
      6002        56  SAPC      C28           -19.4799810761       28.1903770463       14.3748434639  MEMB      56              0.0000000000
      6003        56  SAPC      H8R           -20.3873819121       28.6191131615       14.8189762356  MEMB      56              0.0000000000
      6004        56  SAPC      C29           -19.6038845833       27.1222397929       13.5798933647  MEMB      56              0.0000000000
      6005        56  SAPC      H9R           -20.6042190345       26.7160125584       13.3893406679  MEMB      56              0.0000000000
      6006        56  SAPC      C210          -18.4621589793       26.5040219366       12.8296010926  MEMB      56              0.0000000000
      6007        56  SAPC      H10R          -17.7085972908       26.3013860488       13.6180949495  MEMB      56              0.0000000000
      6008        56  SAPC      H10S          -18.0062986564       27.2476882374       12.1401758961  MEMB      56              0.0000000000
      6009        56  SAPC      C211          -18.8165656395       25.2147929102       12.1173505365  MEMB      56              0.0000000000
      6010        56  SAPC      H11R          -19.4766386077       24.5683722277       12.7158517816  MEMB      56              0.0000000000
      6011        56  SAPC      C212          -18.4110371227       24.7378475014       10.9111006358  MEMB      56              0.0000000000
      6012        56  SAPC      H12R          -18.8073092333       23.7533519558       10.6208354656  MEMB      56              0.0000000000
      6013        56  SAPC      C213          -17.4714791163       25.3207293100        9.8630421636  MEMB      56              0.0000000000
      6014        56  SAPC      H13R          -17.5343127701       24.6880543100        8.9461792282  MEMB      56              0.0000000000
      6015        56  SAPC      H13S          -16.4374151665       25.2408950083       10.2231344729  MEMB      56              0.0000000000
      6016        56  SAPC      C214          -17.7068142592       26.7471353138        9.4586154196  MEMB      56              0.0000000000
      6017        56  SAPC      H14R          -18.6125182413       27.1479013616        9.9099886775  MEMB      56              0.0000000000
      6018        56  SAPC      C215          -16.9786250425       27.6323736900        8.7517370512  MEMB      56              0.0000000000
      6019        56  SAPC      H15R          -17.4421347653       28.6237013102        8.6420622288  MEMB      56              0.0000000000
      6020        56  SAPC      C216          -15.6371492676       27.6003141085        8.0643756134  MEMB      56              0.0000000000
      6021        56  SAPC      H16R          -14.9277894087       27.7340500708        8.8828480363  MEMB      56              0.0000000000
      6022        56  SAPC      H16S          -15.5528940215       28.5557207961        7.5101481860  MEMB      56              0.0000000000
      6023        56  SAPC      C217          -15.0238281349       26.4991005884        7.1522028547  MEMB      56              0.0000000000
      6024        56  SAPC      H17R          -15.2189169502       25.4778467838        7.5380266916  MEMB      56              0.0000000000
      6025        56  SAPC      H17S          -13.9204854830       26.6487199891        7.1695154805  MEMB      56              0.0000000000
      6026        56  SAPC      C218          -15.3743377154       26.5970726499        5.6629267592  MEMB      56              0.0000000000
      6027        56  SAPC      H18R          -16.4394146849       26.3297043595        5.5625265417  MEMB      56              0.0000000000
      6028        56  SAPC      H18S          -14.8232980729       25.7996197116        5.1124054798  MEMB      56              0.0000000000
      6029        56  SAPC      C219          -14.9954420182       27.9490991064        5.0225200006  MEMB      56              0.0000000000
      6030        56  SAPC      H19R          -14.5124860222       28.6060537014        5.7808710660  MEMB      56              0.0000000000
      6031        56  SAPC      H19S          -15.8792162206       28.5084755276        4.6556028719  MEMB      56              0.0000000000
      6032        56  SAPC      C220          -13.9887253186       27.7919631201        3.8926528417  MEMB      56              0.0000000000
      6033        56  SAPC      H20R          -13.0060168555       27.5844518002        4.3583894000  MEMB      56              0.0000000000
      6034        56  SAPC      H20S          -13.9043091308       28.7217281410        3.2929616913  MEMB      56              0.0000000000
      6035        56  SAPC      H20T          -14.2472052342       26.9514852840        3.2156834014  MEMB      56              0.0000000000
      6036        56  SAPC      C33           -15.9393629514       24.0899061380       14.6947520901  MEMB      56              0.0000000000
      6037        56  SAPC      H3X           -17.0038496937       23.8286344547       14.9119079467  MEMB      56              0.0000000000
      6038        56  SAPC      H3Y           -15.3101715190       23.2070523069       14.9469162115  MEMB      56              0.0000000000
      6039        56  SAPC      C34           -15.7919510192       24.3927196370       13.2073774387  MEMB      56              0.0000000000
      6040        56  SAPC      H4X           -16.1038526612       25.4270939096       12.9705889494  MEMB      56              0.0000000000
      6041        56  SAPC      H4Y           -16.4209599217       23.6959974127       12.6105704650  MEMB      56              0.0000000000
      6042        56  SAPC      C35           -14.3414738997       24.2722406093       12.7929508267  MEMB      56              0.0000000000
      6043        56  SAPC      H5X           -14.1572061544       23.1814560677       12.6829111460  MEMB      56              0.0000000000
      6044        56  SAPC      H5Y           -13.6901655101       24.6711042903       13.6024599218  MEMB      56              0.0000000000
      6045        56  SAPC      C36           -13.9733688141       24.9873177525       11.4963712602  MEMB      56              0.0000000000
      6046        56  SAPC      H6X           -14.6525028838       24.6996499398       10.6755362284  MEMB      56              0.0000000000
      6047        56  SAPC      H6Y           -12.9858089942       24.6050295895       11.1897127687  MEMB      56              0.0000000000
      6048        56  SAPC      C37           -13.7885552849       26.5079614283       11.5968189750  MEMB      56              0.0000000000
      6049        56  SAPC      H7X           -13.1518486284       26.7709252949       12.4720815682  MEMB      56              0.0000000000
      6050        56  SAPC      H7Y           -14.7774061906       27.0035853435       11.7388141744  MEMB      56              0.0000000000
      6051        56  SAPC      C38           -13.1220755418       27.0101433912       10.3031286685  MEMB      56              0.0000000000
      6052        56  SAPC      H8X           -13.3386789818       28.0944559008       10.1766216077  MEMB      56              0.0000000000
      6053        56  SAPC      H8Y           -13.5806043757       26.4358230572        9.4660366672  MEMB      56              0.0000000000
      6054        56  SAPC      C39           -11.6101619008       26.7777796946       10.2187727612  MEMB      56              0.0000000000
      6055        56  SAPC      H9X           -11.4020313182       25.6878388340       10.2352614472  MEMB      56              0.0000000000
      6056        56  SAPC      H9Y           -11.1558995509       27.2185032947       11.1373672789  MEMB      56              0.0000000000
      6057        56  SAPC      C310          -10.9193077465       27.4110138351        8.9910920510  MEMB      56              0.0000000000
      6058        56  SAPC      H10X           -9.8251564606       27.2767613661        9.1553187407  MEMB      56              0.0000000000
      6059        56  SAPC      H10Y          -11.1180346144       28.5043885052        8.9915288307  MEMB      56              0.0000000000
      6060        56  SAPC      C311          -11.2580542864       26.8165342920        7.5997792611  MEMB      56              0.0000000000
      6061        56  SAPC      H11X          -11.9520027535       27.4963287560        7.0598140156  MEMB      56              0.0000000000
      6062        56  SAPC      H11Y          -11.7917954637       25.8545729812        7.7498455840  MEMB      56              0.0000000000
      6063        56  SAPC      C312           -9.9923219298       26.5706443362        6.7416126607  MEMB      56              0.0000000000
      6064        56  SAPC      H12X           -9.3261317596       25.9630289965        7.3991938417  MEMB      56              0.0000000000
      6065        56  SAPC      H12Y           -9.4487879939       27.5101548532        6.5322304011  MEMB      56              0.0000000000
      6066        56  SAPC      C313          -10.1541893803       25.7474113290        5.4414061259  MEMB      56              0.0000000000
      6067        56  SAPC      H13X          -10.9971929836       25.0324635169        5.5510249337  MEMB      56              0.0000000000
      6068        56  SAPC      H13Y           -9.2063908063       25.1735565032        5.3463900696  MEMB      56              0.0000000000
      6069        56  SAPC      C314          -10.2395878173       26.4634008195        4.0838664271  MEMB      56              0.0000000000
      6070        56  SAPC      H14X           -9.3759001854       27.1512707258        3.9600462402  MEMB      56              0.0000000000
      6071        56  SAPC      H14Y          -11.1494778469       27.0748191264        4.0750023479  MEMB      56              0.0000000000
      6072        56  SAPC      C315          -10.2406341112       25.4780047875        2.8907617828  MEMB      56              0.0000000000
      6073        56  SAPC      H15X          -11.1629200900       24.8552712049        2.9068152834  MEMB      56              0.0000000000
      6074        56  SAPC      H15Y           -9.3476080302       24.8312148727        2.9869842109  MEMB      56              0.0000000000
      6075        56  SAPC      C316          -10.1096897795       26.1346939796        1.5160678236  MEMB      56              0.0000000000
      6076        56  SAPC      H16X           -9.3103527219       26.9093138070        1.5809699285  MEMB      56              0.0000000000
      6077        56  SAPC      H16Y          -11.0812306499       26.6050172704        1.2992733041  MEMB      56              0.0000000000
      6078        56  SAPC      C317           -9.7658265144       25.2227274870        0.3306243199  MEMB      56              0.0000000000
      6079        56  SAPC      H17X          -10.5114008633       24.4094214914        0.2087807158  MEMB      56              0.0000000000
      6080        56  SAPC      H17Y           -8.7802770092       24.7759508340        0.5616910392  MEMB      56              0.0000000000
      6081        56  SAPC      C318           -9.6803183934       25.9628574148       -1.0054116458  MEMB      56              0.0000000000
      6082        56  SAPC      H18X           -9.1135115863       25.4166196918       -1.7835725992  MEMB      56              0.0000000000
      6083        56  SAPC      H18Y           -9.1669123095       26.9288345965       -0.8480566304  MEMB      56              0.0000000000
      6084        56  SAPC      H18Z          -10.6911429590       26.1933831584       -1.3930306256  MEMB      56              0.0000000000
      6085        57  OSM       N              11.9780151334       27.1840698601       21.4747462942  MEMB      57              0.0000000000
      6086        57  OSM       C15            12.6035557825       26.0596165078       22.2298022823  MEMB      57              0.0000000000
      6087        57  OSM       H15A           11.9799230041       25.1756860473       22.1400858836  MEMB      57              0.0000000000
      6088        57  OSM       H15B           12.7359383319       26.3162042046       23.2691605439  MEMB      57              0.0000000000
      6089        57  OSM       H15C           13.5762165334       25.8372377228       21.8078444253  MEMB      57              0.0000000000
      6090        57  OSM       C14            12.9087673073       28.3450062515       21.5186952035  MEMB      57              0.0000000000
      6091        57  OSM       H14A           13.1974137955       28.6183489278       22.5197373857  MEMB      57              0.0000000000
      6092        57  OSM       H14B           12.4071206856       29.2243210254       21.1059145204  MEMB      57              0.0000000000
      6093        57  OSM       H14C           13.7855530908       28.2199555219       20.9018572182  MEMB      57              0.0000000000
      6094        57  OSM       C13            11.8575011105       26.7541526277       20.0424509782  MEMB      57              0.0000000000
      6095        57  OSM       H13A           11.2749308978       25.8420061178       19.9684194905  MEMB      57              0.0000000000
      6096        57  OSM       H13B           12.8443371061       26.5439341994       19.6352960197  MEMB      57              0.0000000000
      6097        57  OSM       H13C           11.4496603008       27.5602251321       19.4404269744  MEMB      57              0.0000000000
      6098        57  OSM       C12            10.6271658032       27.5458811075       22.0858016307  MEMB      57              0.0000000000
      6099        57  OSM       H12A           10.8060113994       27.8641565644       23.1088536618  MEMB      57              0.0000000000
      6100        57  OSM       H12B           10.0052803086       26.6654967375       22.1530556924  MEMB      57              0.0000000000
      6101        57  OSM       C11             9.8399992479       28.7278267295       21.4757913501  MEMB      57              0.0000000000
      6102        57  OSM       H11A            8.7722773758       28.6673295973       21.7974037857  MEMB      57              0.0000000000
      6103        57  OSM       H11B            9.8492080449       28.6425464971       20.3637616309  MEMB      57              0.0000000000
      6104        57  OSM       P              10.7209343238       31.1386669889       20.9533077953  MEMB      57              0.0000000000
      6105        57  OSM       O13            10.9495384203       32.3610616871       21.7565811038  MEMB      57              0.0000000000
      6106        57  OSM       O14            11.8085742045       30.6419251697       20.0877957766  MEMB      57              0.0000000000
      6107        57  OSM       O11             9.3879716625       31.1455533024       20.0767246116  MEMB      57              0.0000000000
      6108        57  OSM       O12            10.4108865455       29.9496884803       21.9580512334  MEMB      57              0.0000000000
      6109        57  OSM       C1S             9.5792420579       31.6824551555       18.7532810837  MEMB      57              0.0000000000
      6110        57  OSM       H1S            10.4279150529       32.4191324866       18.7048164829  MEMB      57              0.0000000000
      6111        57  OSM       H1T             8.6968559613       32.2888658401       18.4760075347  MEMB      57              0.0000000000
      6112        57  OSM       NF             10.4494504314       31.2581894123       16.5457485423  MEMB      57              0.0000000000
      6113        57  OSM       HNF             9.8499767485       31.4539879151       15.7788500794  MEMB      57              0.0000000000
      6114        57  OSM       C2S             9.8435211622       30.5839868219       17.6692964755  MEMB      57              0.0000000000
      6115        57  OSM       H2S            10.5891585967       29.8580209549       18.0602677677  MEMB      57              0.0000000000
      6116        57  OSM       C3S             8.5471976225       29.8054846268       17.2413835639  MEMB      57              0.0000000000
      6117        57  OSM       H3S             7.6781322498       30.4911530531       17.2129682169  MEMB      57              0.0000000000
      6118        57  OSM       O3              8.2157954202       28.7280695060       18.1220052144  MEMB      57              0.0000000000
      6119        57  OSM       HO3             8.3865086976       29.1131982042       18.9882127232  MEMB      57              0.0000000000
      6120        57  OSM       C4S             8.8025413977       29.2676617078       15.8476347033  MEMB      57              0.0000000000
      6121        57  OSM       H4S             9.3499232886       28.3149205370       15.8194964434  MEMB      57              0.0000000000
      6122        57  OSM       C5S             8.4099506043       29.8461555285       14.6829330576  MEMB      57              0.0000000000
      6123        57  OSM       H5S             7.8003576599       30.7665867616       14.6965408406  MEMB      57              0.0000000000
      6124        57  OSM       C6S             8.7400343741       29.2648796121       13.3296941785  MEMB      57              0.0000000000
      6125        57  OSM       H6S             9.1048690726       28.2178462594       13.4563175529  MEMB      57              0.0000000000
      6126        57  OSM       H6T             9.6030175989       29.8344583686       12.9206069098  MEMB      57              0.0000000000
      6127        57  OSM       C7S             7.6755380369       29.2154706221       12.2138729124  MEMB      57              0.0000000000
      6128        57  OSM       H7S             6.7462583880       28.7890440176       12.6361514831  MEMB      57              0.0000000000
      6129        57  OSM       H7T             8.0551114008       28.5057547306       11.4444212204  MEMB      57              0.0000000000
      6130        57  OSM       C8S             7.3387964846       30.5260256094       11.4821395289  MEMB      57              0.0000000000
      6131        57  OSM       H8S             7.0133514273       31.2851482268       12.2205045682  MEMB      57              0.0000000000
      6132        57  OSM       H8T             6.4793510462       30.3249395707       10.8030367778  MEMB      57              0.0000000000
      6133        57  OSM       C9S             8.4790859195       31.0700241832       10.6080289300  MEMB      57              0.0000000000
      6134        57  OSM       H9S             8.7785182259       30.3079991131        9.8539538635  MEMB      57              0.0000000000
      6135        57  OSM       H9T             9.3529033357       31.2599098568       11.2635751889  MEMB      57              0.0000000000
      6136        57  OSM       C10S            8.1019963604       32.3609722829        9.8710896806  MEMB      57              0.0000000000
      6137        57  OSM       H10S            8.8105592733       33.1878571366       10.0919337578  MEMB      57              0.0000000000
      6138        57  OSM       H10T            7.0985515566       32.6530981944       10.2563949107  MEMB      57              0.0000000000
      6139        57  OSM       C11S            7.9160834189       32.2048888376        8.3655273965  MEMB      57              0.0000000000
      6140        57  OSM       H11S            7.1669054384       32.9631058054        8.0439447138  MEMB      57              0.0000000000
      6141        57  OSM       H11T            7.4834529289       31.2002356205        8.1600673489  MEMB      57              0.0000000000
      6142        57  OSM       C12S            9.1426613934       32.4402547379        7.4742373128  MEMB      57              0.0000000000
      6143        57  OSM       H12S            9.9664920359       31.7455605402        7.7488182814  MEMB      57              0.0000000000
      6144        57  OSM       H12T            9.5099607524       33.4843753242        7.5902096189  MEMB      57              0.0000000000
      6145        57  OSM       C13S            8.6583590707       32.1788193884        6.0448441729  MEMB      57              0.0000000000
      6146        57  OSM       H13S            7.6856680240       32.7080310780        5.9151487712  MEMB      57              0.0000000000
      6147        57  OSM       H13T            8.4611240907       31.0871778005        5.9520680328  MEMB      57              0.0000000000
      6148        57  OSM       C14S            9.5195408772       32.6237791450        4.8660669620  MEMB      57              0.0000000000
      6149        57  OSM       H14S           10.5471791313       32.2142716488        4.9494272625  MEMB      57              0.0000000000
      6150        57  OSM       H14T            9.5812930910       33.7347699360        4.8483447586  MEMB      57              0.0000000000
      6151        57  OSM       C15S            8.8454766313       32.1127534096        3.5800862287  MEMB      57              0.0000000000
      6152        57  OSM       H15S            7.7521762710       32.3026146992        3.6624002004  MEMB      57              0.0000000000
      6153        57  OSM       H15T            8.9854147482       31.0082203213        3.5261959604  MEMB      57              0.0000000000
      6154        57  OSM       C16S            9.3232828735       32.7553904562        2.2750387872  MEMB      57              0.0000000000
      6155        57  OSM       H16S            8.9932858408       33.8177860917        2.2378659387  MEMB      57              0.0000000000
      6156        57  OSM       H16T            8.8365996363       32.2232779138        1.4251199053  MEMB      57              0.0000000000
      6157        57  OSM       C17S           10.8406131646       32.6864457113        2.1041319475  MEMB      57              0.0000000000
      6158        57  OSM       H17S           11.1699285462       31.6339066203        2.2643051843  MEMB      57              0.0000000000
      6159        57  OSM       H17T           11.3161868139       33.3097810506        2.8943039718  MEMB      57              0.0000000000
      6160        57  OSM       C18S           11.3203612183       33.1603836648        0.7328939388  MEMB      57              0.0000000000
      6161        57  OSM       H18S           10.8855953462       32.5284838167       -0.0722828431  MEMB      57              0.0000000000
      6162        57  OSM       H18T           12.4272045732       33.0877265847        0.6807398051  MEMB      57              0.0000000000
      6163        57  OSM       H18U           11.0302480066       34.2178376581        0.5532573563  MEMB      57              0.0000000000
      6164        57  OSM       C1F            11.6766186636       31.7569042869       16.4977523986  MEMB      57              0.0000000000
      6165        57  OSM       OF             12.6243229520       31.1588034337       16.9717792977  MEMB      57              0.0000000000
      6166        57  OSM       C2F            11.8083779850       33.0089399595       15.6945821019  MEMB      57              0.0000000000
      6167        57  OSM       H2F            12.8438241532       33.0851241896       15.3047785780  MEMB      57              0.0000000000
      6168        57  OSM       H2G            11.6057730261       33.8838860277       16.3547345230  MEMB      57              0.0000000000
      6169        57  OSM       C3F            10.7423542132       32.8744084692       14.5823734269  MEMB      57              0.0000000000
      6170        57  OSM       H3F             9.7409025275       32.9604074485       15.0696103000  MEMB      57              0.0000000000
      6171        57  OSM       H3G            10.8229543165       31.8837091856       14.0705497188  MEMB      57              0.0000000000
      6172        57  OSM       C4F            10.6524207934       33.9221693955       13.4904334781  MEMB      57              0.0000000000
      6173        57  OSM       H4F            10.7068718207       34.9575874158       13.8309480425  MEMB      57              0.0000000000
      6174        57  OSM       H4G             9.5994965974       33.7894851932       13.1665021810  MEMB      57              0.0000000000
      6175        57  OSM       C5F            11.3093086886       33.6140142542       12.1562845951  MEMB      57              0.0000000000
      6176        57  OSM       H5F            11.3337009625       34.5005396869       11.4866533840  MEMB      57              0.0000000000
      6177        57  OSM       H5G            10.5801028082       32.9073650662       11.7044469171  MEMB      57              0.0000000000
      6178        57  OSM       C6F            12.6506843127       32.9104903762       12.2164926558  MEMB      57              0.0000000000
      6179        57  OSM       H6F            12.7024024604       32.1555053242       13.0268931149  MEMB      57              0.0000000000
      6180        57  OSM       H6G            13.4544480286       33.6609593344       12.4069904934  MEMB      57              0.0000000000
      6181        57  OSM       C7F            12.9554705282       32.2174430770       10.8946364687  MEMB      57              0.0000000000
      6182        57  OSM       H7F            13.8379859127       31.5513639084       11.0304925567  MEMB      57              0.0000000000
      6183        57  OSM       H7G            13.2315202059       33.0568776688       10.2179374093  MEMB      57              0.0000000000
      6184        57  OSM       C8F            11.8709099612       31.4481969863       10.1116310576  MEMB      57              0.0000000000
      6185        57  OSM       H8F            12.1749860215       31.5018451416        9.0558639543  MEMB      57              0.0000000000
      6186        57  OSM       H8G            10.9017255480       31.9685296469       10.0702448337  MEMB      57              0.0000000000
      6187        57  OSM       C9F            11.7388185347       30.0204125624       10.5584645351  MEMB      57              0.0000000000
      6188        57  OSM       H9F            11.3483601026       29.9044592131       11.5816789569  MEMB      57              0.0000000000
      6189        57  OSM       C10F           12.1334639542       28.9213877265        9.8914253599  MEMB      57              0.0000000000
      6190        57  OSM       H10F           11.9894312151       27.9597487877       10.4069698032  MEMB      57              0.0000000000
      6191        57  OSM       C11F           12.8075248165       28.7897008727        8.5382794133  MEMB      57              0.0000000000
      6192        57  OSM       H11F           12.8141311934       27.7093257309        8.2685833083  MEMB      57              0.0000000000
      6193        57  OSM       H11G           13.8784203025       29.0854404672        8.6303716183  MEMB      57              0.0000000000
      6194        57  OSM       C12F           12.2325980232       29.5013983775        7.2963069940  MEMB      57              0.0000000000
      6195        57  OSM       H12F           12.3314575517       30.6000680427        7.3935556151  MEMB      57              0.0000000000
      6196        57  OSM       H12G           11.1535683229       29.2661057505        7.1768009801  MEMB      57              0.0000000000
      6197        57  OSM       C13F           12.9916733548       29.1538508938        6.0069743574  MEMB      57              0.0000000000
      6198        57  OSM       H13F           12.8267019854       28.0940995722        5.7204124222  MEMB      57              0.0000000000
      6199        57  OSM       H13G           14.0822554684       29.2861247151        6.1986958552  MEMB      57              0.0000000000
      6200        57  OSM       C14F           12.5815499717       30.1038914154        4.8755873542  MEMB      57              0.0000000000
      6201        57  OSM       H14F           12.6477877801       31.1353578234        5.2871086484  MEMB      57              0.0000000000
      6202        57  OSM       H14G           11.5215744263       29.9347867371        4.5882802132  MEMB      57              0.0000000000
      6203        57  OSM       C15F           13.4944917120       30.0486459884        3.6480843752  MEMB      57              0.0000000000
      6204        57  OSM       H15F           14.5552618313       29.9515721110        3.9694217928  MEMB      57              0.0000000000
      6205        57  OSM       H15G           13.4031829438       31.0163432686        3.1007258461  MEMB      57              0.0000000000
      6206        57  OSM       C16F           13.1461115930       28.9200251605        2.6739352255  MEMB      57              0.0000000000
      6207        57  OSM       H16F           12.0557511350       28.9466531122        2.4461817282  MEMB      57              0.0000000000
      6208        57  OSM       H16G           13.3679746107       27.9422800829        3.1495179302  MEMB      57              0.0000000000
      6209        57  OSM       C17F           13.9231930555       29.0761082036        1.3632906452  MEMB      57              0.0000000000
      6210        57  OSM       H17F           15.0040018745       29.2145895631        1.5941111331  MEMB      57              0.0000000000
      6211        57  OSM       H17G           13.5605718638       30.0128577381        0.8835203368  MEMB      57              0.0000000000
      6212        57  OSM       C18F           13.7592804163       27.9161538284        0.3805088636  MEMB      57              0.0000000000
      6213        57  OSM       H18F           13.8075707367       28.2807907766       -0.6673339713  MEMB      57              0.0000000000
      6214        57  OSM       H18G           12.7845777228       27.4106312670        0.5369609538  MEMB      57              0.0000000000
      6215        57  OSM       H18H           14.5599901312       27.1602869224        0.5163768156  MEMB      57              0.0000000000
      6216        58  SAPE      N              -9.1892277976      -28.0255309575       22.2303610226  MEMB      58              0.0000000000
      6217        58  SAPE      HN1            -8.6687676343      -27.6483430999       21.4246304805  MEMB      58              0.0000000000
      6218        58  SAPE      HN2           -10.1815903069      -27.7014942070       22.1762137783  MEMB      58              0.0000000000
      6219        58  SAPE      HN3            -8.7242204975      -27.6606495339       23.1030918791  MEMB      58              0.0000000000
      6220        58  SAPE      C12            -9.1528419405      -29.5227846202       22.0903519847  MEMB      58              0.0000000000
      6221        58  SAPE      H12A           -9.5709657146      -29.9492265087       23.0179758766  MEMB      58              0.0000000000
      6222        58  SAPE      H12B           -8.0865627069      -29.8356149195       22.0238630418  MEMB      58              0.0000000000
      6223        58  SAPE      C11            -9.9400542776      -29.9881487941       20.8328592287  MEMB      58              0.0000000000
      6224        58  SAPE      H11A          -10.0115477948      -31.1041116828       20.8900730689  MEMB      58              0.0000000000
      6225        58  SAPE      H11B           -9.3293492741      -29.7325460101       19.9336423059  MEMB      58              0.0000000000
      6226        58  SAPE      P             -12.2126324867      -29.9792246761       19.5535249807  MEMB      58              0.0000000000
      6227        58  SAPE      O13           -12.2416489926      -31.4488694276       19.6845960873  MEMB      58              0.0000000000
      6228        58  SAPE      O14           -13.5225398644      -29.3094231250       19.6365332481  MEMB      58              0.0000000000
      6229        58  SAPE      O12           -11.2514354079      -29.3961464508       20.7197711589  MEMB      58              0.0000000000
      6230        58  SAPE      O11           -11.4701566451      -29.4644698804       18.2347761482  MEMB      58              0.0000000000
      6231        58  SAPE      C1            -11.9190792879      -28.1983277668       17.6952714474  MEMB      58              0.0000000000
      6232        58  SAPE      HA            -12.9583532617      -28.2780616013       17.3024094371  MEMB      58              0.0000000000
      6233        58  SAPE      HB            -11.9270961699      -27.4171275712       18.4979981189  MEMB      58              0.0000000000
      6234        58  SAPE      C2            -10.9845780701      -27.6304561038       16.5663841163  MEMB      58              0.0000000000
      6235        58  SAPE      HS            -10.9210492409      -26.5279506435       16.7174115063  MEMB      58              0.0000000000
      6236        58  SAPE      O21           -11.4206222655      -27.9281636279       15.2170965020  MEMB      58              0.0000000000
      6237        58  SAPE      C21           -12.4709832023      -27.2634222105       14.8277564543  MEMB      58              0.0000000000
      6238        58  SAPE      O22           -13.0392346917      -26.4008772145       15.4704281177  MEMB      58              0.0000000000
      6239        58  SAPE      C22           -12.9299809980      -27.8096224166       13.4708282024  MEMB      58              0.0000000000
      6240        58  SAPE      H2R           -12.2865865234      -28.6677821451       13.1889184234  MEMB      58              0.0000000000
      6241        58  SAPE      H2S           -13.9579045190      -28.2008586015       13.6271913008  MEMB      58              0.0000000000
      6242        58  SAPE      C3             -9.5731146659      -28.1951888039       16.6721505845  MEMB      58              0.0000000000
      6243        58  SAPE      HX             -9.2089936608      -28.1394641647       17.7217985271  MEMB      58              0.0000000000
      6244        58  SAPE      HY             -8.8804558783      -27.6681111456       15.9797681000  MEMB      58              0.0000000000
      6245        58  SAPE      O31            -9.7162433981      -29.5250681487       16.2299831698  MEMB      58              0.0000000000
      6246        58  SAPE      C31            -8.7442971693      -30.3089275138       16.4107295479  MEMB      58              0.0000000000
      6247        58  SAPE      O32            -7.6676592398      -30.0529234992       16.9395016647  MEMB      58              0.0000000000
      6248        58  SAPE      C32            -9.1315243223      -31.5608860443       15.6700774426  MEMB      58              0.0000000000
      6249        58  SAPE      H2X           -10.2413157790      -31.6359871454       15.6084778228  MEMB      58              0.0000000000
      6250        58  SAPE      H2Y            -8.7618394811      -32.4253900921       16.2535129363  MEMB      58              0.0000000000
      6251        58  SAPE      C23           -12.9642374273      -26.7588283550       12.3321742151  MEMB      58              0.0000000000
      6252        58  SAPE      H3R           -13.7041374631      -25.9634224757       12.5842728482  MEMB      58              0.0000000000
      6253        58  SAPE      H3S           -13.3344465568      -27.2573593405       11.4069138257  MEMB      58              0.0000000000
      6254        58  SAPE      C24           -11.6058561559      -26.1088959880       12.0055723551  MEMB      58              0.0000000000
      6255        58  SAPE      H4R           -11.3060647512      -25.4720116391       12.8697238759  MEMB      58              0.0000000000
      6256        58  SAPE      H4S           -11.7734923502      -25.4138756849       11.1530928077  MEMB      58              0.0000000000
      6257        58  SAPE      C25           -10.5155073789      -27.1118099482       11.6971922172  MEMB      58              0.0000000000
      6258        58  SAPE      H5R           -10.2784151895      -27.8002508327       12.5229241600  MEMB      58              0.0000000000
      6259        58  SAPE      C26            -9.7668461791      -27.1888408841       10.5793823296  MEMB      58              0.0000000000
      6260        58  SAPE      H6R            -8.9859049960      -27.9627235902       10.5229149798  MEMB      58              0.0000000000
      6261        58  SAPE      C27            -9.8570428414      -26.2810044591        9.3806897856  MEMB      58              0.0000000000
      6262        58  SAPE      H7R           -10.2023367357      -25.2830420313        9.7353445385  MEMB      58              0.0000000000
      6263        58  SAPE      H7S           -10.6643088425      -26.6380788065        8.7040300915  MEMB      58              0.0000000000
      6264        58  SAPE      C28            -8.6078190445      -25.9956701952        8.5788457299  MEMB      58              0.0000000000
      6265        58  SAPE      H8R            -8.6950664269      -25.0287596041        8.0625309448  MEMB      58              0.0000000000
      6266        58  SAPE      C29            -7.4368872691      -26.6346641968        8.3682832527  MEMB      58              0.0000000000
      6267        58  SAPE      H9R            -6.7260317302      -26.0740728025        7.7550716652  MEMB      58              0.0000000000
      6268        58  SAPE      C210           -6.8247744339      -27.9416303659        8.8311562713  MEMB      58              0.0000000000
      6269        58  SAPE      H10R           -7.5548681655      -28.7566698292        8.8633899259  MEMB      58              0.0000000000
      6270        58  SAPE      H10S           -6.4332067516      -27.8572601751        9.8691742008  MEMB      58              0.0000000000
      6271        58  SAPE      C211           -5.7173886691      -28.3015416209        7.8617552156  MEMB      58              0.0000000000
      6272        58  SAPE      H11R           -4.6997899918      -28.1827311699        8.2658310635  MEMB      58              0.0000000000
      6273        58  SAPE      C212           -5.8670366112      -28.7671282617        6.6013590515  MEMB      58              0.0000000000
      6274        58  SAPE      H12R           -4.9767123645      -28.8827491912        5.9659563135  MEMB      58              0.0000000000
      6275        58  SAPE      C213           -7.1715443799      -29.0376854808        5.9051932623  MEMB      58              0.0000000000
      6276        58  SAPE      H13R           -8.0057608908      -28.7003421274        6.5517799403  MEMB      58              0.0000000000
      6277        58  SAPE      H13S           -7.2584173309      -30.1417237158        5.8451239310  MEMB      58              0.0000000000
      6278        58  SAPE      C214           -7.4247883508      -28.4136964267        4.5572639481  MEMB      58              0.0000000000
      6279        58  SAPE      H14R           -7.2198181713      -27.3377161648        4.5180731827  MEMB      58              0.0000000000
      6280        58  SAPE      C215           -7.8261701410      -29.0222751750        3.4223797795  MEMB      58              0.0000000000
      6281        58  SAPE      H15R           -7.9498579921      -28.4055506656        2.5179886722  MEMB      58              0.0000000000
      6282        58  SAPE      C216           -8.1126347470      -30.4869336150        3.2081319769  MEMB      58              0.0000000000
      6283        58  SAPE      H16R           -7.6010029060      -31.0953699927        3.9814927727  MEMB      58              0.0000000000
      6284        58  SAPE      H16S           -7.6279889667      -30.7371070905        2.2429472348  MEMB      58              0.0000000000
      6285        58  SAPE      C217           -9.5606979678      -31.0303938773        3.1510133769  MEMB      58              0.0000000000
      6286        58  SAPE      H17R          -10.2367658112      -30.3592858397        2.5691913756  MEMB      58              0.0000000000
      6287        58  SAPE      H17S           -9.9373381470      -31.1294160730        4.1836030913  MEMB      58              0.0000000000
      6288        58  SAPE      C218           -9.6039623250      -32.4606891263        2.5833630297  MEMB      58              0.0000000000
      6289        58  SAPE      H18R          -10.6350292374      -32.8562226420        2.6382308052  MEMB      58              0.0000000000
      6290        58  SAPE      H18S           -9.0043776662      -33.1253600726        3.2455058320  MEMB      58              0.0000000000
      6291        58  SAPE      C219           -9.0486703706      -32.4899449708        1.1518480449  MEMB      58              0.0000000000
      6292        58  SAPE      H19R           -7.9615503047      -32.7195371513        1.2299466270  MEMB      58              0.0000000000
      6293        58  SAPE      H19S           -9.1301861570      -31.4534655525        0.7434738429  MEMB      58              0.0000000000
      6294        58  SAPE      C220           -9.7111591924      -33.4285367556        0.1399264193  MEMB      58              0.0000000000
      6295        58  SAPE      H20R          -10.7557692698      -33.1164060732       -0.0603312126  MEMB      58              0.0000000000
      6296        58  SAPE      H20S           -9.6926512817      -34.4815912533        0.4815993216  MEMB      58              0.0000000000
      6297        58  SAPE      H20T           -9.1941962433      -33.3852450848       -0.8375061576  MEMB      58              0.0000000000
      6298        58  SAPE      C33            -8.5337988043      -31.5031508148       14.2532209211  MEMB      58              0.0000000000
      6299        58  SAPE      H3X            -8.5755698650      -32.5401973589       13.8819197437  MEMB      58              0.0000000000
      6300        58  SAPE      H3Y            -7.4656898450      -31.2016632757       14.2872604815  MEMB      58              0.0000000000
      6301        58  SAPE      C34            -9.2957552808      -30.6604204566       13.2132656591  MEMB      58              0.0000000000
      6302        58  SAPE      H4X            -9.4073299580      -29.6113551100       13.5589342753  MEMB      58              0.0000000000
      6303        58  SAPE      H4Y           -10.3193009798      -31.0861086472       13.1122178787  MEMB      58              0.0000000000
      6304        58  SAPE      C35            -8.6034317159      -30.7243846753       11.8333971587  MEMB      58              0.0000000000
      6305        58  SAPE      H5X            -8.0260960460      -31.6650060711       11.8301447615  MEMB      58              0.0000000000
      6306        58  SAPE      H5Y            -7.8873290759      -29.8817930002       11.7270834630  MEMB      58              0.0000000000
      6307        58  SAPE      C36            -9.5809776157      -30.8263686136       10.6514591100  MEMB      58              0.0000000000
      6308        58  SAPE      H6X           -10.2218738492      -29.9211953702       10.6860351662  MEMB      58              0.0000000000
      6309        58  SAPE      H6Y           -10.2411081411      -31.7046164025       10.8101720081  MEMB      58              0.0000000000
      6310        58  SAPE      C37            -9.0039642306      -30.9916841567        9.2250644911  MEMB      58              0.0000000000
      6311        58  SAPE      H7X            -9.1334617192      -32.0512176708        8.9164614448  MEMB      58              0.0000000000
      6312        58  SAPE      H7Y            -7.9135800163      -30.7938309244        9.1998682640  MEMB      58              0.0000000000
      6313        58  SAPE      C38            -9.7760378031      -30.1006171728        8.2274880354  MEMB      58              0.0000000000
      6314        58  SAPE      H8X            -9.2592876750      -29.1311367758        8.1366585096  MEMB      58              0.0000000000
      6315        58  SAPE      H8Y           -10.7578605217      -29.8507173051        8.6849273659  MEMB      58              0.0000000000
      6316        58  SAPE      C39           -10.0462692688      -30.6461965063        6.8038323149  MEMB      58              0.0000000000
      6317        58  SAPE      H9X           -10.2523731231      -31.7321167323        6.7899481526  MEMB      58              0.0000000000
      6318        58  SAPE      H9Y            -9.1289182006      -30.5443216320        6.2065240203  MEMB      58              0.0000000000
      6319        58  SAPE      C310          -11.1722507427      -29.8608941350        6.0935355049  MEMB      58              0.0000000000
      6320        58  SAPE      H10X          -12.1649138154      -30.3158911439        6.2613143180  MEMB      58              0.0000000000
      6321        58  SAPE      H10Y          -11.0913227046      -29.8924277169        4.9962909337  MEMB      58              0.0000000000
      6322        58  SAPE      C311          -11.1622056958      -28.3966924779        6.5304648162  MEMB      58              0.0000000000
      6323        58  SAPE      H11X          -10.1114021628      -28.0401063067        6.6482493380  MEMB      58              0.0000000000
      6324        58  SAPE      H11Y          -11.6819345068      -28.3139373081        7.5102179245  MEMB      58              0.0000000000
      6325        58  SAPE      C312          -11.7819779162      -27.4275124839        5.5496907982  MEMB      58              0.0000000000
      6326        58  SAPE      H12X          -11.5880196378      -26.4100645289        5.9614961110  MEMB      58              0.0000000000
      6327        58  SAPE      H12Y          -12.8788081902      -27.5931161179        5.4698287324  MEMB      58              0.0000000000
      6328        58  SAPE      C313          -11.1498011114      -27.4320092079        4.1662228459  MEMB      58              0.0000000000
      6329        58  SAPE      H13X          -11.4766764742      -28.3266910878        3.5940205561  MEMB      58              0.0000000000
      6330        58  SAPE      H13Y          -10.0419818496      -27.4447840069        4.2561989563  MEMB      58              0.0000000000
      6331        58  SAPE      C314          -11.5769152141      -26.1535469847        3.4631785671  MEMB      58              0.0000000000
      6332        58  SAPE      H14X          -10.9846090414      -25.3255492685        3.9020630462  MEMB      58              0.0000000000
      6333        58  SAPE      H14Y          -12.6412179327      -26.0053780229        3.7216536750  MEMB      58              0.0000000000
      6334        58  SAPE      C315          -11.4940796554      -26.1889311103        1.9453221069  MEMB      58              0.0000000000
      6335        58  SAPE      H15X          -11.7452160072      -25.1824517493        1.5416524799  MEMB      58              0.0000000000
      6336        58  SAPE      H15Y          -12.2735250278      -26.8970849077        1.5761358151  MEMB      58              0.0000000000
      6337        58  SAPE      C316          -10.1323357415      -26.6518064057        1.4298966594  MEMB      58              0.0000000000
      6338        58  SAPE      H16X           -9.8641932882      -27.6230570030        1.8958061779  MEMB      58              0.0000000000
      6339        58  SAPE      H16Y           -9.3592220002      -25.9049749458        1.7123985952  MEMB      58              0.0000000000
      6340        58  SAPE      C317          -10.1783607873      -26.8274224943       -0.0846545791  MEMB      58              0.0000000000
      6341        58  SAPE      H17X          -10.2728937355      -25.8033724022       -0.4927038204  MEMB      58              0.0000000000
      6342        58  SAPE      H17Y          -11.1055682105      -27.3836889961       -0.3506302165  MEMB      58              0.0000000000
      6343        58  SAPE      C318           -8.9788853669      -27.5357735757       -0.7170440228  MEMB      58              0.0000000000
      6344        58  SAPE      H18X           -8.0303851637      -27.0080040283       -0.4819973666  MEMB      58              0.0000000000
      6345        58  SAPE      H18Y           -9.0969822981      -27.5643004864       -1.8230725037  MEMB      58              0.0000000000
      6346        58  SAPE      H18Z           -8.9044198611      -28.5812179649       -0.3479903239  MEMB      58              0.0000000000
      6347        59  OSM       N              32.5731934680        6.0616782699       22.7071227560  MEMB      59              0.0000000000
      6348        59  OSM       C15            32.5159085436        5.6964509382       24.1385559361  MEMB      59              0.0000000000
      6349        59  OSM       H15A           32.9922727890        4.7364343577       24.3118403535  MEMB      59              0.0000000000
      6350        59  OSM       H15B           31.5045468194        5.6731854776       24.5222400225  MEMB      59              0.0000000000
      6351        59  OSM       H15C           33.1095139629        6.4029585592       24.7163986859  MEMB      59              0.0000000000
      6352        59  OSM       C14            33.9999692169        6.0888900993       22.2437855076  MEMB      59              0.0000000000
      6353        59  OSM       H14A           34.5649829629        6.7924176964       22.8426346991  MEMB      59              0.0000000000
      6354        59  OSM       H14B           34.0194505708        6.3968124172       21.2014618593  MEMB      59              0.0000000000
      6355        59  OSM       H14C           34.5040381642        5.1321162706       22.3143554595  MEMB      59              0.0000000000
      6356        59  OSM       C13            31.8494706677        5.0205407279       21.9088106343  MEMB      59              0.0000000000
      6357        59  OSM       H13A           32.4281644062        4.1246970294       21.7625856807  MEMB      59              0.0000000000
      6358        59  OSM       H13B           31.6405395595        5.4324251931       20.9110986556  MEMB      59              0.0000000000
      6359        59  OSM       H13C           30.8713525853        4.8003113396       22.3175917007  MEMB      59              0.0000000000
      6360        59  OSM       C12            31.9573229802        7.4585884732       22.4917339232  MEMB      59              0.0000000000
      6361        59  OSM       H12A           32.5778291539        8.2110115559       22.9687671446  MEMB      59              0.0000000000
      6362        59  OSM       H12B           30.9697705776        7.4964960099       22.9435609795  MEMB      59              0.0000000000
      6363        59  OSM       C11            31.7332869645        7.9265903324       21.0380874669  MEMB      59              0.0000000000
      6364        59  OSM       H11A           32.6976837834        7.9386368977       20.4834949195  MEMB      59              0.0000000000
      6365        59  OSM       H11B           31.3238611868        8.9665356097       21.0347584428  MEMB      59              0.0000000000
      6366        59  OSM       P              29.5860614760        7.2258111613       19.5855030773  MEMB      59              0.0000000000
      6367        59  OSM       O13            29.0347331666        5.9065168593       19.2481906814  MEMB      59              0.0000000000
      6368        59  OSM       O14            28.6911514746        8.1934184012       20.2449796182  MEMB      59              0.0000000000
      6369        59  OSM       O11            30.2325761808        7.7958917080       18.2536526451  MEMB      59              0.0000000000
      6370        59  OSM       O12            30.8556940339        7.0105220374       20.4366280531  MEMB      59              0.0000000000
      6371        59  OSM       C1S            31.3907305190        7.1191910752       17.6837976757  MEMB      59              0.0000000000
      6372        59  OSM       H1S            31.0723832281        6.2058935569       17.1269856613  MEMB      59              0.0000000000
      6373        59  OSM       H1T            32.1297910465        6.7912605394       18.4525949217  MEMB      59              0.0000000000
      6374        59  OSM       NF             33.3285540938        7.4110692906       16.0676304501  MEMB      59              0.0000000000
      6375        59  OSM       HNF            34.2212204194        7.8122625497       16.2577044897  MEMB      59              0.0000000000
      6376        59  OSM       C2S            32.1624302572        8.0439507005       16.6785528736  MEMB      59              0.0000000000
      6377        59  OSM       H2S            31.4333663942        8.2586732734       15.8694961645  MEMB      59              0.0000000000
      6378        59  OSM       C3S            32.6204074138        9.3882214868       17.3508282006  MEMB      59              0.0000000000
      6379        59  OSM       H3S            33.6074886209        9.2308549605       17.8413455015  MEMB      59              0.0000000000
      6380        59  OSM       O3             31.7462556639        9.8674636162       18.3314176067  MEMB      59              0.0000000000
      6381        59  OSM       HO3            31.1037503208        9.1536810841       18.4661563884  MEMB      59              0.0000000000
      6382        59  OSM       C4S            32.7178212015       10.5279885878       16.3718961445  MEMB      59              0.0000000000
      6383        59  OSM       H4S            32.5528415290       11.5248987851       16.8187639971  MEMB      59              0.0000000000
      6384        59  OSM       C5S            32.8843480259       10.4043651099       15.0450822131  MEMB      59              0.0000000000
      6385        59  OSM       H5S            32.9101819889        9.3940035958       14.6352407293  MEMB      59              0.0000000000
      6386        59  OSM       C6S            32.9612088080       11.5042104629       14.0292403937  MEMB      59              0.0000000000
      6387        59  OSM       H6S            33.9536380157       11.9660627585       14.1170366233  MEMB      59              0.0000000000
      6388        59  OSM       H6T            32.2539693009       12.3210236084       14.3051955547  MEMB      59              0.0000000000
      6389        59  OSM       C7S            32.6656499579       11.1018768758       12.5421850296  MEMB      59              0.0000000000
      6390        59  OSM       H7S            33.1492778562       11.8825267732       11.9101572373  MEMB      59              0.0000000000
      6391        59  OSM       H7T            31.5786550338       11.1934916811       12.3516264046  MEMB      59              0.0000000000
      6392        59  OSM       C8S            33.1664679985        9.7202363098       12.0248115214  MEMB      59              0.0000000000
      6393        59  OSM       H8S            33.3685974632        9.0314826390       12.8706585380  MEMB      59              0.0000000000
      6394        59  OSM       H8T            34.1421460115        9.8785854314       11.5185229873  MEMB      59              0.0000000000
      6395        59  OSM       C9S            32.2404766952        8.8632375739       11.1118557132  MEMB      59              0.0000000000
      6396        59  OSM       H9S            31.2039866921        8.9108031445       11.4659169796  MEMB      59              0.0000000000
      6397        59  OSM       H9T            32.5209096863        7.7883293411       11.2219970607  MEMB      59              0.0000000000
      6398        59  OSM       C10S           32.2857491160        9.1643358013        9.6081703546  MEMB      59              0.0000000000
      6399        59  OSM       H10S           33.3220607363        9.2035730778        9.2798678613  MEMB      59              0.0000000000
      6400        59  OSM       H10T           31.9089766130       10.1839275576        9.3892519791  MEMB      59              0.0000000000
      6401        59  OSM       C11S           31.5647430828        8.1346895682        8.7160326053  MEMB      59              0.0000000000
      6402        59  OSM       H11S           30.5819893620        7.8455214014        9.1464849512  MEMB      59              0.0000000000
      6403        59  OSM       H11T           32.1578312691        7.1964083910        8.6251957286  MEMB      59              0.0000000000
      6404        59  OSM       C12S           31.3651709803        8.7509535329        7.3319272755  MEMB      59              0.0000000000
      6405        59  OSM       H12S           32.3608854622        9.1050426220        6.9750023307  MEMB      59              0.0000000000
      6406        59  OSM       H12T           30.7249362029        9.6517876897        7.3813942670  MEMB      59              0.0000000000
      6407        59  OSM       C13S           30.8081385829        7.7936638328        6.2890245467  MEMB      59              0.0000000000
      6408        59  OSM       H13S           31.4136633187        6.8590415905        6.2791616193  MEMB      59              0.0000000000
      6409        59  OSM       H13T           30.9484887193        8.3290928867        5.3238065860  MEMB      59              0.0000000000
      6410        59  OSM       C14S           29.3324074675        7.4351997554        6.3632355428  MEMB      59              0.0000000000
      6411        59  OSM       H14S           28.7170433189        8.3590133896        6.2504006757  MEMB      59              0.0000000000
      6412        59  OSM       H14T           29.0918230334        6.9768020392        7.3456642831  MEMB      59              0.0000000000
      6413        59  OSM       C15S           29.0091148420        6.4753161441        5.2106766431  MEMB      59              0.0000000000
      6414        59  OSM       H15S           27.9630181732        6.1109384173        5.2764296847  MEMB      59              0.0000000000
      6415        59  OSM       H15T           29.6672577096        5.5788867040        5.2757610506  MEMB      59              0.0000000000
      6416        59  OSM       C16S           29.2266526959        7.1848779665        3.8683356207  MEMB      59              0.0000000000
      6417        59  OSM       H16S           30.3086998533        7.3223617496        3.6754951537  MEMB      59              0.0000000000
      6418        59  OSM       H16T           28.7482879620        8.1915073304        3.9400279020  MEMB      59              0.0000000000
      6419        59  OSM       C17S           28.6028389548        6.4653271594        2.6865805648  MEMB      59              0.0000000000
      6420        59  OSM       H17S           28.6610012019        7.1125131958        1.7805667621  MEMB      59              0.0000000000
      6421        59  OSM       H17T           27.5406606576        6.3858717398        2.9943879018  MEMB      59              0.0000000000
      6422        59  OSM       C18S           29.1900830785        5.0874871985        2.3685273690  MEMB      59              0.0000000000
      6423        59  OSM       H18S           28.4523746797        4.4419389390        1.8515781679  MEMB      59              0.0000000000
      6424        59  OSM       H18T           29.5108167347        4.5635393385        3.2925797436  MEMB      59              0.0000000000
      6425        59  OSM       H18U           30.0708993105        5.1849872884        1.7007249539  MEMB      59              0.0000000000
      6426        59  OSM       C1F            33.3466873860        6.3957025627       15.2100718695  MEMB      59              0.0000000000
      6427        59  OSM       OF             32.3748467528        5.7027819917       14.9486335162  MEMB      59              0.0000000000
      6428        59  OSM       C2F            34.6950650275        6.1735121648       14.5951920303  MEMB      59              0.0000000000
      6429        59  OSM       H2F            35.1893908504        5.4527524731       15.2741211792  MEMB      59              0.0000000000
      6430        59  OSM       H2G            35.2878573929        7.1088840021       14.6871764021  MEMB      59              0.0000000000
      6431        59  OSM       C3F            34.6932217441        5.7428587790       13.0928179972  MEMB      59              0.0000000000
      6432        59  OSM       H3F            33.7719697749        6.1116320345       12.5914276903  MEMB      59              0.0000000000
      6433        59  OSM       H3G            34.6742408317        4.6386941775       12.9974572857  MEMB      59              0.0000000000
      6434        59  OSM       C4F            35.8942447187        6.3018800375       12.2905606453  MEMB      59              0.0000000000
      6435        59  OSM       H4F            36.0142356457        5.7493011226       11.3313828167  MEMB      59              0.0000000000
      6436        59  OSM       H4G            36.8294787698        6.1623026506       12.8678267690  MEMB      59              0.0000000000
      6437        59  OSM       C5F            35.6037723602        7.7791552185       11.9930953572  MEMB      59              0.0000000000
      6438        59  OSM       H5F            35.3734123707        8.2708469147       12.9646745066  MEMB      59              0.0000000000
      6439        59  OSM       H5G            34.6907867391        7.7795951538       11.3643582381  MEMB      59              0.0000000000
      6440        59  OSM       C6F            36.6477150971        8.6737545319       11.3114003492  MEMB      59              0.0000000000
      6441        59  OSM       H6F            37.6031416639        8.5516170605       11.8555184441  MEMB      59              0.0000000000
      6442        59  OSM       H6G            36.3550317032        9.7427121778       11.4144581357  MEMB      59              0.0000000000
      6443        59  OSM       C7F            36.8741062976        8.3900136103        9.8287586002  MEMB      59              0.0000000000
      6444        59  OSM       H7F            37.0364655591        7.2914008369        9.7719165606  MEMB      59              0.0000000000
      6445        59  OSM       H7G            37.7953397477        8.9160327774        9.4981178117  MEMB      59              0.0000000000
      6446        59  OSM       C8F            35.7595614757        8.7377688098        8.8176825815  MEMB      59              0.0000000000
      6447        59  OSM       H8F            34.8710245615        8.1656048045        9.1440108162  MEMB      59              0.0000000000
      6448        59  OSM       H8G            36.0089904063        8.2660025684        7.8509340060  MEMB      59              0.0000000000
      6449        59  OSM       C9F            35.5515593365       10.2200620877        8.5791205028  MEMB      59              0.0000000000
      6450        59  OSM       H9F            35.4786921854       10.8351085617        9.4956480338  MEMB      59              0.0000000000
      6451        59  OSM       C10F           35.5260802008       10.8398052619        7.3744816087  MEMB      59              0.0000000000
      6452        59  OSM       H10F           35.6138454716       11.9355325152        7.3907108778  MEMB      59              0.0000000000
      6453        59  OSM       C11F           35.7000760777       10.2213362678        5.9939149970  MEMB      59              0.0000000000
      6454        59  OSM       H11F           36.1755023680        9.2249497076        6.0806982619  MEMB      59              0.0000000000
      6455        59  OSM       H11G           36.4370812092       10.8517700412        5.4494558234  MEMB      59              0.0000000000
      6456        59  OSM       C12F           34.5453104226       10.0595868763        4.9702409264  MEMB      59              0.0000000000
      6457        59  OSM       H12F           34.6478398386       10.8890558419        4.2538037134  MEMB      59              0.0000000000
      6458        59  OSM       H12G           33.5505749278       10.1626763868        5.4546332873  MEMB      59              0.0000000000
      6459        59  OSM       C13F           34.6014392561        8.7582496966        4.1346371202  MEMB      59              0.0000000000
      6460        59  OSM       H13F           35.2677272745        8.0534120882        4.6714730164  MEMB      59              0.0000000000
      6461        59  OSM       H13G           35.0199091263        8.9317251269        3.1194443015  MEMB      59              0.0000000000
      6462        59  OSM       C14F           33.2278779969        8.0839435311        4.0831418200  MEMB      59              0.0000000000
      6463        59  OSM       H14F           32.5002528017        8.6523190042        3.4697406308  MEMB      59              0.0000000000
      6464        59  OSM       H14G           32.9342049991        8.1475785152        5.1479594936  MEMB      59              0.0000000000
      6465        59  OSM       C15F           33.1614498016        6.5837959390        3.7641762356  MEMB      59              0.0000000000
      6466        59  OSM       H15F           32.4034584771        6.1169522984        4.4379030765  MEMB      59              0.0000000000
      6467        59  OSM       H15G           34.1204452193        6.1074470337        4.0269049853  MEMB      59              0.0000000000
      6468        59  OSM       C16F           32.7136724675        6.2870911030        2.3266967597  MEMB      59              0.0000000000
      6469        59  OSM       H16F           33.2261678234        6.9811246642        1.6263806293  MEMB      59              0.0000000000
      6470        59  OSM       H16G           31.6289623855        6.5122229577        2.2556273334  MEMB      59              0.0000000000
      6471        59  OSM       C17F           32.9531175974        4.8386897680        1.8624913715  MEMB      59              0.0000000000
      6472        59  OSM       H17F           34.0242168821        4.7375743421        1.5939111471  MEMB      59              0.0000000000
      6473        59  OSM       H17G           32.3807465975        4.6632118242        0.9231614440  MEMB      59              0.0000000000
      6474        59  OSM       C18F           32.6227344967        3.7425170552        2.8835113203  MEMB      59              0.0000000000
      6475        59  OSM       H18F           31.5350065184        3.7024228050        3.0915577255  MEMB      59              0.0000000000
      6476        59  OSM       H18G           33.1525537500        3.9213344992        3.8439562237  MEMB      59              0.0000000000
      6477        59  OSM       H18H           32.9454275498        2.7513795161        2.4983516445  MEMB      59              0.0000000000
      6478        60  OSM       N             -31.7004458997       -3.2047723941       21.3397150621  MEMB      60              0.0000000000
      6479        60  OSM       C15           -31.9541867934       -1.9348866825       22.0748267323  MEMB      60              0.0000000000
      6480        60  OSM       H15A          -32.5744395144       -2.1442352972       22.9494280405  MEMB      60              0.0000000000
      6481        60  OSM       H15B          -32.4936277117       -1.2222675535       21.4613655467  MEMB      60              0.0000000000
      6482        60  OSM       H15C          -31.0320478240       -1.4903094531       22.4251847307  MEMB      60              0.0000000000
      6483        60  OSM       C14           -33.0147137970       -3.7767902633       20.8701228013  MEMB      60              0.0000000000
      6484        60  OSM       H14A          -33.5645499165       -3.1114044734       20.2226099315  MEMB      60              0.0000000000
      6485        60  OSM       H14B          -33.6481525371       -4.0988855304       21.6966941847  MEMB      60              0.0000000000
      6486        60  OSM       H14C          -32.8414379289       -4.7024757265       20.3214365542  MEMB      60              0.0000000000
      6487        60  OSM       C13           -30.8165229080       -2.9232037094       20.1590800166  MEMB      60              0.0000000000
      6488        60  OSM       H13A          -30.5375396737       -3.8626756793       19.6795384401  MEMB      60              0.0000000000
      6489        60  OSM       H13B          -29.9057148072       -2.4173886964       20.4773121087  MEMB      60              0.0000000000
      6490        60  OSM       H13C          -31.3305221219       -2.3401045787       19.4050246319  MEMB      60              0.0000000000
      6491        60  OSM       C12           -31.0277220864       -4.2274079298       22.2586197030  MEMB      60              0.0000000000
      6492        60  OSM       H12A          -31.7088578920       -4.4566272986       23.0761359651  MEMB      60              0.0000000000
      6493        60  OSM       H12B          -30.1353523302       -3.7950312312       22.6962466596  MEMB      60              0.0000000000
      6494        60  OSM       C11           -30.6408782912       -5.6035918477       21.6547836640  MEMB      60              0.0000000000
      6495        60  OSM       H11A          -29.9618042463       -6.0997254557       22.3840273235  MEMB      60              0.0000000000
      6496        60  OSM       H11B          -30.0756010685       -5.4798097396       20.7035266575  MEMB      60              0.0000000000
      6497        60  OSM       P             -31.7315093819       -7.8483281792       20.8216481162  MEMB      60              0.0000000000
      6498        60  OSM       O13           -30.6298136392       -8.6287198262       21.4510645738  MEMB      60              0.0000000000
      6499        60  OSM       O14           -33.0856452591       -8.4038330962       20.8690274357  MEMB      60              0.0000000000
      6500        60  OSM       O11           -31.3107906391       -7.5238560557       19.3290718065  MEMB      60              0.0000000000
      6501        60  OSM       O12           -31.8083320881       -6.3952924370       21.4802179147  MEMB      60              0.0000000000
      6502        60  OSM       C1S           -32.2760158182       -7.0334416489       18.4047018186  MEMB      60              0.0000000000
      6503        60  OSM       H1S           -32.6227561050       -6.0166419537       18.6947898919  MEMB      60              0.0000000000
      6504        60  OSM       H1T           -33.1709376327       -7.6993354269       18.3551592811  MEMB      60              0.0000000000
      6505        60  OSM       NF            -32.4565835385       -6.1076591086       16.1564729945  MEMB      60              0.0000000000
      6506        60  OSM       HNF           -33.1311441053       -6.5177730705       15.5508525667  MEMB      60              0.0000000000
      6507        60  OSM       C2S           -31.6499138446       -6.9795929566       16.9890832630  MEMB      60              0.0000000000
      6508        60  OSM       H2S           -30.6255969709       -6.5499194220       17.0641403066  MEMB      60              0.0000000000
      6509        60  OSM       C3S           -31.5442402306       -8.4305238267       16.4249288286  MEMB      60              0.0000000000
      6510        60  OSM       H3S           -32.4330651132       -9.0358196593       16.6926859652  MEMB      60              0.0000000000
      6511        60  OSM       O3            -30.3854189104       -9.1183173231       16.8787794771  MEMB      60              0.0000000000
      6512        60  OSM       HO3           -30.7092732367       -9.5871971302       17.6611532604  MEMB      60              0.0000000000
      6513        60  OSM       C4S           -31.3970057526       -8.3648577565       14.9408054968  MEMB      60              0.0000000000
      6514        60  OSM       H4S           -30.3986597908       -8.0252374447       14.6439996422  MEMB      60              0.0000000000
      6515        60  OSM       C5S           -32.3221678669       -8.6919340649       14.0122432386  MEMB      60              0.0000000000
      6516        60  OSM       H5S           -33.3089548111       -9.0608261034       14.3420883347  MEMB      60              0.0000000000
      6517        60  OSM       C6S           -32.1217511341       -8.6001352227       12.5157412498  MEMB      60              0.0000000000
      6518        60  OSM       H6S           -32.9563050171       -8.0202911519       12.0747883839  MEMB      60              0.0000000000
      6519        60  OSM       H6T           -32.2005498744       -9.5948221798       12.0341886198  MEMB      60              0.0000000000
      6520        60  OSM       C7S           -30.7760280331       -7.9692933822       12.0982937017  MEMB      60              0.0000000000
      6521        60  OSM       H7S           -29.9545406799       -8.4652108810       12.6473515545  MEMB      60              0.0000000000
      6522        60  OSM       H7T           -30.7731465762       -6.8926293682       12.3743571320  MEMB      60              0.0000000000
      6523        60  OSM       C8S           -30.4343494541       -8.1174158284       10.6144528517  MEMB      60              0.0000000000
      6524        60  OSM       H8S           -31.3323011403       -7.8831266905       10.0096015885  MEMB      60              0.0000000000
      6525        60  OSM       H8T           -30.1484797255       -9.1651534584       10.4038531191  MEMB      60              0.0000000000
      6526        60  OSM       C9S           -29.2523970933       -7.2479682106       10.1705292727  MEMB      60              0.0000000000
      6527        60  OSM       H9S           -28.3620827930       -7.8929761052       10.0166175963  MEMB      60              0.0000000000
      6528        60  OSM       H9T           -29.0092781485       -6.5254297732       10.9824771162  MEMB      60              0.0000000000
      6529        60  OSM       C10S          -29.5496074967       -6.4707274815        8.8858507718  MEMB      60              0.0000000000
      6530        60  OSM       H10S          -29.8589123444       -7.1729374057        8.0876375656  MEMB      60              0.0000000000
      6531        60  OSM       H10T          -28.6312043620       -5.9684953282        8.5149233137  MEMB      60              0.0000000000
      6532        60  OSM       C11S          -30.6244669691       -5.4154579034        9.1371738211  MEMB      60              0.0000000000
      6533        60  OSM       H11S          -30.3139629506       -4.7920482416        9.9948939562  MEMB      60              0.0000000000
      6534        60  OSM       H11T          -31.5727036411       -5.8796489470        9.4457212692  MEMB      60              0.0000000000
      6535        60  OSM       C12S          -30.8768717240       -4.4982463557        7.9511947935  MEMB      60              0.0000000000
      6536        60  OSM       H12S          -29.9181197297       -4.2866140702        7.4419247658  MEMB      60              0.0000000000
      6537        60  OSM       H12T          -31.3139616826       -3.5502609368        8.3261287976  MEMB      60              0.0000000000
      6538        60  OSM       C13S          -31.8375656439       -5.0800375590        6.9426650268  MEMB      60              0.0000000000
      6539        60  OSM       H13S          -32.7013405307       -5.5359380388        7.4633661759  MEMB      60              0.0000000000
      6540        60  OSM       H13T          -31.3046150682       -5.8644819212        6.3632909365  MEMB      60              0.0000000000
      6541        60  OSM       C14S          -32.3456882243       -4.0478101415        5.9640733971  MEMB      60              0.0000000000
      6542        60  OSM       H14S          -32.5960402565       -3.0906256186        6.4693883494  MEMB      60              0.0000000000
      6543        60  OSM       H14T          -33.2824896586       -4.4327021704        5.4996157996  MEMB      60              0.0000000000
      6544        60  OSM       C15S          -31.3017331825       -3.8228597517        4.8852563587  MEMB      60              0.0000000000
      6545        60  OSM       H15S          -30.8473016989       -4.7794709556        4.5426120885  MEMB      60              0.0000000000
      6546        60  OSM       H15T          -30.4793124248       -3.1947801022        5.2907202640  MEMB      60              0.0000000000
      6547        60  OSM       C16S          -31.9509496871       -3.1564356414        3.6963080936  MEMB      60              0.0000000000
      6548        60  OSM       H16S          -32.5834231069       -2.3547306838        4.0999379058  MEMB      60              0.0000000000
      6549        60  OSM       H16T          -32.6240627540       -3.8460368796        3.1489137223  MEMB      60              0.0000000000
      6550        60  OSM       C17S          -30.9020026042       -2.6173674391        2.7591841798  MEMB      60              0.0000000000
      6551        60  OSM       H17S          -31.3810261847       -2.4901761214        1.7686866412  MEMB      60              0.0000000000
      6552        60  OSM       H17T          -30.1440564908       -3.4147288384        2.6166948621  MEMB      60              0.0000000000
      6553        60  OSM       C18S          -30.2446658550       -1.3224590177        3.2691658641  MEMB      60              0.0000000000
      6554        60  OSM       H18S          -30.4966466268       -0.4473801238        2.6328590009  MEMB      60              0.0000000000
      6555        60  OSM       H18T          -29.1394304458       -1.4143441310        3.2661104573  MEMB      60              0.0000000000
      6556        60  OSM       H18U          -30.5816285003       -1.1070106256        4.3056122363  MEMB      60              0.0000000000
      6557        60  OSM       C1F           -32.3834233945       -4.7907616465       16.2273693049  MEMB      60              0.0000000000
      6558        60  OSM       OF            -31.5158023827       -4.2122203337       16.8767713589  MEMB      60              0.0000000000
      6559        60  OSM       C2F           -33.4588577317       -4.0762868519       15.4955049674  MEMB      60              0.0000000000
      6560        60  OSM       H2F           -33.5344102098       -3.0693279507       15.9496929308  MEMB      60              0.0000000000
      6561        60  OSM       H2G           -34.4118294185       -4.6099896413       15.6695658309  MEMB      60              0.0000000000
      6562        60  OSM       C3F           -33.2297759714       -3.9928067887       13.9665386938  MEMB      60              0.0000000000
      6563        60  OSM       H3F           -32.2286755352       -3.5538195595       13.7688679999  MEMB      60              0.0000000000
      6564        60  OSM       H3G           -33.9926808670       -3.2873493564       13.5660377608  MEMB      60              0.0000000000
      6565        60  OSM       C4F           -33.3543138827       -5.3160398025       13.1903700789  MEMB      60              0.0000000000
      6566        60  OSM       H4F           -34.3990300890       -5.6911489835       13.2169729024  MEMB      60              0.0000000000
      6567        60  OSM       H4G           -32.7006781497       -6.0621530758       13.6789172006  MEMB      60              0.0000000000
      6568        60  OSM       C5F           -32.8583022796       -5.2187557566       11.7403077517  MEMB      60              0.0000000000
      6569        60  OSM       H5F           -32.8013821571       -6.2093341093       11.2529886541  MEMB      60              0.0000000000
      6570        60  OSM       H5G           -31.8228323894       -4.8054874042       11.7805126935  MEMB      60              0.0000000000
      6571        60  OSM       C6F           -33.6894792956       -4.3175157750       10.8338977370  MEMB      60              0.0000000000
      6572        60  OSM       H6F           -33.0533018410       -4.0347999957        9.9669602183  MEMB      60              0.0000000000
      6573        60  OSM       H6G           -33.9062973463       -3.3996738185       11.4191684419  MEMB      60              0.0000000000
      6574        60  OSM       C7F           -35.0240115164       -4.8813217502       10.3138136952  MEMB      60              0.0000000000
      6575        60  OSM       H7F           -35.8318782025       -4.2197844627       10.6851897951  MEMB      60              0.0000000000
      6576        60  OSM       H7G           -35.1937824760       -5.8926682123       10.7369582481  MEMB      60              0.0000000000
      6577        60  OSM       C8F           -35.2428791549       -4.8172666174        8.7922257511  MEMB      60              0.0000000000
      6578        60  OSM       H8F           -34.3183050829       -4.5289229820        8.2605803800  MEMB      60              0.0000000000
      6579        60  OSM       H8G           -35.9813213582       -4.0000809487        8.6053255726  MEMB      60              0.0000000000
      6580        60  OSM       C9F           -35.7820247139       -6.0824238290        8.2129935049  MEMB      60              0.0000000000
      6581        60  OSM       H9F           -36.7404102881       -5.9787877922        7.7084708811  MEMB      60              0.0000000000
      6582        60  OSM       C10F          -35.2170627330       -7.2882358556        8.2748438179  MEMB      60              0.0000000000
      6583        60  OSM       H10F          -35.7217806410       -8.1344609158        7.7943209886  MEMB      60              0.0000000000
      6584        60  OSM       C11F          -33.9152903572       -7.6179697959        8.9379616305  MEMB      60              0.0000000000
      6585        60  OSM       H11F          -34.1071718982       -7.9827663363        9.9728122291  MEMB      60              0.0000000000
      6586        60  OSM       H11G          -33.2747882888       -6.7271359524        9.0374738022  MEMB      60              0.0000000000
      6587        60  OSM       C12F          -33.1937501909       -8.7320442247        8.1690877239  MEMB      60              0.0000000000
      6588        60  OSM       H12F          -33.9487871032       -9.4704490867        7.8754193877  MEMB      60              0.0000000000
      6589        60  OSM       H12G          -32.5093064840       -9.2418868792        8.8832182108  MEMB      60              0.0000000000
      6590        60  OSM       C13F          -32.3698696106       -8.3483460261        6.9244705243  MEMB      60              0.0000000000
      6591        60  OSM       H13F          -31.7647009888       -9.2337782308        6.6403527278  MEMB      60              0.0000000000
      6592        60  OSM       H13G          -31.6410821216       -7.5934483043        7.2526056407  MEMB      60              0.0000000000
      6593        60  OSM       C14F          -33.1390521502       -7.8601127596        5.6715883003  MEMB      60              0.0000000000
      6594        60  OSM       H14F          -33.5484791314       -6.8474183309        5.8747771205  MEMB      60              0.0000000000
      6595        60  OSM       H14G          -34.0061048645       -8.5201350417        5.4734846443  MEMB      60              0.0000000000
      6596        60  OSM       C15F          -32.2509517684       -7.8088162809        4.4044729093  MEMB      60              0.0000000000
      6597        60  OSM       H15F          -32.2282345695       -8.7953213738        3.8990644845  MEMB      60              0.0000000000
      6598        60  OSM       H15G          -31.2108439990       -7.5965338678        4.7524110680  MEMB      60              0.0000000000
      6599        60  OSM       C16F          -32.5892186448       -6.6914971842        3.3965105217  MEMB      60              0.0000000000
      6600        60  OSM       H16F          -31.7153874966       -6.5405851968        2.7197737642  MEMB      60              0.0000000000
      6601        60  OSM       H16G          -32.7272472383       -5.7644122525        3.9765863658  MEMB      60              0.0000000000
      6602        60  OSM       C17F          -33.8342054833       -6.8465878853        2.5141896995  MEMB      60              0.0000000000
      6603        60  OSM       H17F          -34.7245095512       -7.0585478523        3.1475273266  MEMB      60              0.0000000000
      6604        60  OSM       H17G          -33.6787751870       -7.7119220781        1.8319880373  MEMB      60              0.0000000000
      6605        60  OSM       C18F          -34.1026960373       -5.5777340674        1.6849960823  MEMB      60              0.0000000000
      6606        60  OSM       H18F          -33.1533750759       -5.1841447217        1.2606610538  MEMB      60              0.0000000000
      6607        60  OSM       H18G          -34.5420774580       -4.7789089465        2.3218308727  MEMB      60              0.0000000000
      6608        60  OSM       H18H          -34.8019071789       -5.7722441454        0.8459471155  MEMB      60              0.0000000000
      6609        61  SOPE      N               7.6719158304      -33.2986028749       22.9887749532  MEMB      61              0.0000000000
      6610        61  SOPE      HN1             6.6531363147      -33.2894142550       23.2411431722  MEMB      61              0.0000000000
      6611        61  SOPE      HN2             7.7533003711      -34.1033551711       22.3096967440  MEMB      61              0.0000000000
      6612        61  SOPE      HN3             8.2108468918      -33.5059683057       23.8568821739  MEMB      61              0.0000000000
      6613        61  SOPE      C12             8.1008434067      -31.9386634510       22.4309083069  MEMB      61              0.0000000000
      6614        61  SOPE      H12A            8.5415220427      -31.3414761037       23.2486473716  MEMB      61              0.0000000000
      6615        61  SOPE      H12B            7.1824909809      -31.4061160512       22.1341183848  MEMB      61              0.0000000000
      6616        61  SOPE      C11             9.1129066522      -32.0148203404       21.2543448047  MEMB      61              0.0000000000
      6617        61  SOPE      H11A            8.8897004974      -32.9108864941       20.6301406056  MEMB      61              0.0000000000
      6618        61  SOPE      H11B           10.1365314888      -32.1660901782       21.6781356773  MEMB      61              0.0000000000
      6619        61  SOPE      P              10.0966637723      -29.6293913509       20.5804590491  MEMB      61              0.0000000000
      6620        61  SOPE      O13            10.6545730898      -29.6710458241       21.9403547479  MEMB      61              0.0000000000
      6621        61  SOPE      O14             9.4080887045      -28.4283586338       20.1050101314  MEMB      61              0.0000000000
      6622        61  SOPE      O12             9.0632870673      -30.8502742917       20.4130384493  MEMB      61              0.0000000000
      6623        61  SOPE      O11            11.2390114932      -29.9066805445       19.5504322797  MEMB      61              0.0000000000
      6624        61  SOPE      C1             11.6807857529      -31.1868251169       19.1365379478  MEMB      61              0.0000000000
      6625        61  SOPE      HA             11.3663294209      -32.0085854410       19.8126146998  MEMB      61              0.0000000000
      6626        61  SOPE      HB             12.7964031206      -31.1853401057       19.1681717251  MEMB      61              0.0000000000
      6627        61  SOPE      C2             11.2028079291      -31.4611564741       17.6836015713  MEMB      61              0.0000000000
      6628        61  SOPE      HS             11.5355418938      -32.4974453559       17.4102538014  MEMB      61              0.0000000000
      6629        61  SOPE      O21            11.7166126077      -30.4018156521       16.8161822961  MEMB      61              0.0000000000
      6630        61  SOPE      C21            12.9923817637      -30.7014671807       16.5883650205  MEMB      61              0.0000000000
      6631        61  SOPE      O22            13.4633156506      -31.7992536494       16.8140022966  MEMB      61              0.0000000000
      6632        61  SOPE      C22            13.8787584053      -29.5699610416       16.1071073739  MEMB      61              0.0000000000
      6633        61  SOPE      H2R            14.8783585301      -30.0396804265       15.9694320423  MEMB      61              0.0000000000
      6634        61  SOPE      H2S            13.9732765418      -28.8280642430       16.9241135136  MEMB      61              0.0000000000
      6635        61  SOPE      C3              9.6769047065      -31.5617616390       17.5146586737  MEMB      61              0.0000000000
      6636        61  SOPE      HX              9.2718699356      -30.5404451145       17.7069486519  MEMB      61              0.0000000000
      6637        61  SOPE      HY              9.2716361035      -32.2884430537       18.2529513618  MEMB      61              0.0000000000
      6638        61  SOPE      O31             9.4103692266      -31.9907071753       16.1680058736  MEMB      61              0.0000000000
      6639        61  SOPE      C31             8.1795468154      -31.8011584143       15.7758266278  MEMB      61              0.0000000000
      6640        61  SOPE      O32             7.1763715782      -32.0431274391       16.4330846552  MEMB      61              0.0000000000
      6641        61  SOPE      C32             8.2507559216      -30.9754799836       14.4931089680  MEMB      61              0.0000000000
      6642        61  SOPE      H2X             9.0987593800      -31.3456103932       13.8798462048  MEMB      61              0.0000000000
      6643        61  SOPE      H2Y             8.5036858030      -29.9426066367       14.8193131989  MEMB      61              0.0000000000
      6644        61  SOPE      C23            13.4233483859      -28.9202985757       14.7909469030  MEMB      61              0.0000000000
      6645        61  SOPE      H3R            14.1552429539      -28.1174454858       14.5412783939  MEMB      61              0.0000000000
      6646        61  SOPE      H3S            12.4293853227      -28.4501451154       14.9690967648  MEMB      61              0.0000000000
      6647        61  SOPE      C24            13.3419510388      -29.8650758227       13.5748326910  MEMB      61              0.0000000000
      6648        61  SOPE      H4R            14.3687616806      -30.0192323133       13.1738335405  MEMB      61              0.0000000000
      6649        61  SOPE      H4S            12.9520229214      -30.8615046764       13.8773648887  MEMB      61              0.0000000000
      6650        61  SOPE      C25            12.4226989200      -29.2795623369       12.4804832594  MEMB      61              0.0000000000
      6651        61  SOPE      H5R            11.3715957031      -29.3812170607       12.8270457242  MEMB      61              0.0000000000
      6652        61  SOPE      H5S            12.6413011149      -28.1921971113       12.3953798080  MEMB      61              0.0000000000
      6653        61  SOPE      C26            12.5909782787      -29.8817906103       11.0721903717  MEMB      61              0.0000000000
      6654        61  SOPE      H6R            13.1993281170      -29.1817412940       10.4567983039  MEMB      61              0.0000000000
      6655        61  SOPE      H6S            13.1637484388      -30.8390724247       11.1571697597  MEMB      61              0.0000000000
      6656        61  SOPE      C27            11.2808674880      -30.1712105321       10.3094802360  MEMB      61              0.0000000000
      6657        61  SOPE      H7R            11.5206644454      -30.5401705688        9.2900878470  MEMB      61              0.0000000000
      6658        61  SOPE      H7S            10.8149089079      -31.0222376852       10.8648435097  MEMB      61              0.0000000000
      6659        61  SOPE      C28            10.1888551880      -29.0602786876       10.1768738533  MEMB      61              0.0000000000
      6660        61  SOPE      H8R             9.3679460069      -29.4871954933        9.5533295409  MEMB      61              0.0000000000
      6661        61  SOPE      H8S             9.7431087064      -28.9844968689       11.1977917045  MEMB      61              0.0000000000
      6662        61  SOPE      C29            10.4332497000      -27.6440320983        9.6813003902  MEMB      61              0.0000000000
      6663        61  SOPE      H91            10.0196179918      -26.9172199246       10.3973014156  MEMB      61              0.0000000000
      6664        61  SOPE      C210           10.9619311208      -27.1161209279        8.5389031616  MEMB      61              0.0000000000
      6665        61  SOPE      H101           10.9555162831      -26.0197541387        8.4447678896  MEMB      61              0.0000000000
      6666        61  SOPE      C211           11.5146726427      -27.7981582078        7.3083116764  MEMB      61              0.0000000000
      6667        61  SOPE      H11R           10.8708325224      -28.6830303008        7.1156542179  MEMB      61              0.0000000000
      6668        61  SOPE      H11S           12.4901214076      -28.2316179675        7.6286137048  MEMB      61              0.0000000000
      6669        61  SOPE      C212           11.8227773314      -27.1816504155        5.8678812496  MEMB      61              0.0000000000
      6670        61  SOPE      H12R           11.4467909421      -27.9065731035        5.1192842758  MEMB      61              0.0000000000
      6671        61  SOPE      H12S           12.9201347762      -27.3186671463        5.7875560972  MEMB      61              0.0000000000
      6672        61  SOPE      C213           11.6018627245      -25.7148302815        5.3086794134  MEMB      61              0.0000000000
      6673        61  SOPE      H13R           11.9805700386      -25.7687147194        4.2570977339  MEMB      61              0.0000000000
      6674        61  SOPE      H13S           12.2588249695      -24.9938810080        5.8389470188  MEMB      61              0.0000000000
      6675        61  SOPE      C214           10.1951054406      -25.0743061230        5.1775193556  MEMB      61              0.0000000000
      6676        61  SOPE      H14R           10.0243686630      -24.2869502942        5.9406743214  MEMB      61              0.0000000000
      6677        61  SOPE      H14S            9.4962538583      -25.8784053594        5.3628450376  MEMB      61              0.0000000000
      6678        61  SOPE      C215            9.5716056772      -24.6964400638        3.8081864247  MEMB      61              0.0000000000
      6679        61  SOPE      H15R            9.6661700811      -25.5915646969        3.1608508877  MEMB      61              0.0000000000
      6680        61  SOPE      H15S           10.0973415785      -23.8685576228        3.2995792235  MEMB      61              0.0000000000
      6681        61  SOPE      C216            8.0612171012      -24.3700662858        4.0362211915  MEMB      61              0.0000000000
      6682        61  SOPE      H16R            7.9884413673      -23.3339890512        4.4250176574  MEMB      61              0.0000000000
      6683        61  SOPE      H16S            7.7047637424      -25.0267565547        4.8639577558  MEMB      61              0.0000000000
      6684        61  SOPE      C217            7.0428529188      -24.6520241337        2.9039004034  MEMB      61              0.0000000000
      6685        61  SOPE      H17R            7.0719922825      -25.7013938339        2.6432379834  MEMB      61              0.0000000000
      6686        61  SOPE      H17S            7.2552236972      -24.1504271186        1.9486197620  MEMB      61              0.0000000000
      6687        61  SOPE      C218            5.5670658086      -24.5789776664        3.2862205030  MEMB      61              0.0000000000
      6688        61  SOPE      H18R            5.2260067480      -23.5526949965        3.4481189325  MEMB      61              0.0000000000
      6689        61  SOPE      H18S            5.3900161166      -25.1526806839        4.2250029701  MEMB      61              0.0000000000
      6690        61  SOPE      H18T            4.9464116324      -24.9984293210        2.4666382727  MEMB      61              0.0000000000
      6691        61  SOPE      C33             6.9486902011      -30.9386064118       13.6712719167  MEMB      61              0.0000000000
      6692        61  SOPE      H3X             6.1177551619      -30.5178671082       14.2795455382  MEMB      61              0.0000000000
      6693        61  SOPE      H3Y             6.6506414131      -31.9741651203       13.4076693155  MEMB      61              0.0000000000
      6694        61  SOPE      C34             7.1449197149      -30.0935020906       12.3968992409  MEMB      61              0.0000000000
      6695        61  SOPE      H4X             7.7786389503      -30.6219653129       11.6672804304  MEMB      61              0.0000000000
      6696        61  SOPE      H4Y             7.7882283944      -29.2427215766       12.6248933238  MEMB      61              0.0000000000
      6697        61  SOPE      C35             5.8350743339      -29.6088123130       11.7552704186  MEMB      61              0.0000000000
      6698        61  SOPE      H5X             5.4378834586      -28.7416758524       12.3229695284  MEMB      61              0.0000000000
      6699        61  SOPE      H5Y             5.0773830563      -30.4202541390       11.8635848959  MEMB      61              0.0000000000
      6700        61  SOPE      C36             5.9322264329      -29.2519194930       10.2530042518  MEMB      61              0.0000000000
      6701        61  SOPE      H6X             6.9682637073      -29.3704938308        9.8872775397  MEMB      61              0.0000000000
      6702        61  SOPE      H6Y             5.6852980839      -28.1840142806       10.1450698599  MEMB      61              0.0000000000
      6703        61  SOPE      C37             4.8781685490      -30.0452460171        9.4630549662  MEMB      61              0.0000000000
      6704        61  SOPE      H7X             3.9366627055      -29.5658507093        9.8163293166  MEMB      61              0.0000000000
      6705        61  SOPE      H7Y             4.8688493288      -31.1074125335        9.7681537693  MEMB      61              0.0000000000
      6706        61  SOPE      C38             4.7384023955      -30.0089364969        7.9368367090  MEMB      61              0.0000000000
      6707        61  SOPE      H8X             4.6211634264      -28.9536747594        7.5961286985  MEMB      61              0.0000000000
      6708        61  SOPE      H8Y             3.7816733625      -30.5347136419        7.7355588436  MEMB      61              0.0000000000
      6709        61  SOPE      C39             5.7091512168      -30.7488016931        7.0067116740  MEMB      61              0.0000000000
      6710        61  SOPE      H9X             6.7602133126      -30.6993643300        7.3313561049  MEMB      61              0.0000000000
      6711        61  SOPE      H9Y             5.5956529356      -30.0821704365        6.1461023060  MEMB      61              0.0000000000
      6712        61  SOPE      C310            5.2809109268      -32.0948495965        6.3765648474  MEMB      61              0.0000000000
      6713        61  SOPE      H10X            4.2265873012      -31.9879645440        6.0458717128  MEMB      61              0.0000000000
      6714        61  SOPE      H10Y            5.2725725170      -32.8428874255        7.1833101152  MEMB      61              0.0000000000
      6715        61  SOPE      C311            6.0491865000      -32.5747245825        5.0988756232  MEMB      61              0.0000000000
      6716        61  SOPE      H11X            5.4919960071      -32.2528953014        4.2072787136  MEMB      61              0.0000000000
      6717        61  SOPE      H11Y            6.0297597664      -33.6783304556        4.9987079467  MEMB      61              0.0000000000
      6718        61  SOPE      C312            7.4853620413      -32.0693297653        4.9442118206  MEMB      61              0.0000000000
      6719        61  SOPE      H12X            8.1134687923      -32.6834435414        5.6155119728  MEMB      61              0.0000000000
      6720        61  SOPE      H12Y            7.5788269405      -31.0097257218        5.2389634517  MEMB      61              0.0000000000
      6721        61  SOPE      C313            8.1402602324      -32.1583181126        3.5633355842  MEMB      61              0.0000000000
      6722        61  SOPE      H13X            7.8250171673      -31.3258333424        2.9007916668  MEMB      61              0.0000000000
      6723        61  SOPE      H13Y            7.8830814628      -33.1173589222        3.0687030781  MEMB      61              0.0000000000
      6724        61  SOPE      C314            9.6440266315      -32.0672834542        3.8151844255  MEMB      61              0.0000000000
      6725        61  SOPE      H14X            9.8947457328      -32.8747231083        4.5006879424  MEMB      61              0.0000000000
      6726        61  SOPE      H14Y            9.9098644918      -31.1432928015        4.3606509986  MEMB      61              0.0000000000
      6727        61  SOPE      C315           10.5374394237      -32.3090411864        2.6176555646  MEMB      61              0.0000000000
      6728        61  SOPE      H15X           10.4177966936      -33.3851107645        2.3697184681  MEMB      61              0.0000000000
      6729        61  SOPE      H15Y           11.5855343299      -32.0848035397        2.9084914121  MEMB      61              0.0000000000
      6730        61  SOPE      C316           10.2541795336      -31.4844142439        1.3834608172  MEMB      61              0.0000000000
      6731        61  SOPE      H16X            9.2383666278      -31.7215047776        0.9965229063  MEMB      61              0.0000000000
      6732        61  SOPE      H16Y           10.9728213457      -31.8186462518        0.6156652859  MEMB      61              0.0000000000
      6733        61  SOPE      C317           10.3284265956      -29.9874421432        1.6683619768  MEMB      61              0.0000000000
      6734        61  SOPE      H17X            9.5016300789      -29.8778939598        2.4006675760  MEMB      61              0.0000000000
      6735        61  SOPE      H17Y           10.0613346321      -29.4116114677        0.7533970727  MEMB      61              0.0000000000
      6736        61  SOPE      C318           11.5781237736      -29.3600635274        2.3197853270  MEMB      61              0.0000000000
      6737        61  SOPE      H18X           12.5152419520      -29.8483925782        1.9913728083  MEMB      61              0.0000000000
      6738        61  SOPE      H18Y           11.5076563101      -29.4113633611        3.4271849316  MEMB      61              0.0000000000
      6739        61  SOPE      H18Z           11.6334473942      -28.2776193383        2.0541057778  MEMB      61              0.0000000000
      6740        62  SOPE      N               5.8953505186      -31.0780618248       18.6286619102  MEMB      62              0.0000000000
      6741        62  SOPE      HN1             5.1838993103      -30.6089400034       18.0289751088  MEMB      62              0.0000000000
      6742        62  SOPE      HN2             6.7159173281      -30.4390067646       18.7333832200  MEMB      62              0.0000000000
      6743        62  SOPE      HN3             6.2372855270      -31.8896253915       18.0528888413  MEMB      62              0.0000000000
      6744        62  SOPE      C12             5.3046782717      -31.4056862375       20.0035912366  MEMB      62              0.0000000000
      6745        62  SOPE      H12A            4.2484910856      -31.0751544992       19.9950339397  MEMB      62              0.0000000000
      6746        62  SOPE      H12B            5.8469159270      -30.7674260358       20.7305098610  MEMB      62              0.0000000000
      6747        62  SOPE      C11             5.3698702568      -32.8981941057       20.4516725956  MEMB      62              0.0000000000
      6748        62  SOPE      H11A            6.4224090706      -33.2465525408       20.3622788880  MEMB      62              0.0000000000
      6749        62  SOPE      H11B            4.7635879826      -33.5279737102       19.7544242744  MEMB      62              0.0000000000
      6750        62  SOPE      P               3.4740656504      -33.4246468955       22.2986671415  MEMB      62              0.0000000000
      6751        62  SOPE      O13             3.1744931879      -32.5662973093       23.4743968273  MEMB      62              0.0000000000
      6752        62  SOPE      O14             3.3358995002      -34.8985199875       22.4844279824  MEMB      62              0.0000000000
      6753        62  SOPE      O12             4.9822856654      -33.0818454137       21.8305572247  MEMB      62              0.0000000000
      6754        62  SOPE      O11             2.6488333935      -32.9013565171       21.0482080306  MEMB      62              0.0000000000
      6755        62  SOPE      C1              1.6269754251      -33.7170888742       20.5178461827  MEMB      62              0.0000000000
      6756        62  SOPE      HA              0.6514155172      -33.4608595229       20.9898103110  MEMB      62              0.0000000000
      6757        62  SOPE      HB              1.8004854633      -34.8165171796       20.6577192556  MEMB      62              0.0000000000
      6758        62  SOPE      C2              1.5694948488      -33.4775457788       19.0126353995  MEMB      62              0.0000000000
      6759        62  SOPE      HS              0.6182016210      -33.9344531371       18.6876139275  MEMB      62              0.0000000000
      6760        62  SOPE      O21             2.7019752979      -34.0246389038       18.3334910134  MEMB      62              0.0000000000
      6761        62  SOPE      C21             2.4286404164      -35.2085614881       17.8429275656  MEMB      62              0.0000000000
      6762        62  SOPE      O22             1.5652828537      -35.9530614264       18.2862364903  MEMB      62              0.0000000000
      6763        62  SOPE      C22             3.1530733661      -35.3814169786       16.5184085454  MEMB      62              0.0000000000
      6764        62  SOPE      H2R             3.7822178862      -36.2911120418       16.5720609761  MEMB      62              0.0000000000
      6765        62  SOPE      H2S             3.8079116315      -34.5060378522       16.3202618404  MEMB      62              0.0000000000
      6766        62  SOPE      C3              1.4986594436      -32.0375019273       18.5421917904  MEMB      62              0.0000000000
      6767        62  SOPE      HX              2.4362329418      -31.4902504127       18.7856047000  MEMB      62              0.0000000000
      6768        62  SOPE      HY              0.6659910735      -31.5309298355       19.0725765677  MEMB      62              0.0000000000
      6769        62  SOPE      O31             1.2167622898      -32.1332671670       17.1320287109  MEMB      62              0.0000000000
      6770        62  SOPE      C31             2.2221350370      -31.9666304347       16.2831291970  MEMB      62              0.0000000000
      6771        62  SOPE      O32             3.3640076169      -31.6744035217       16.6210445424  MEMB      62              0.0000000000
      6772        62  SOPE      C32             1.7328742309      -32.1063263832       14.8235276179  MEMB      62              0.0000000000
      6773        62  SOPE      H2X             0.8548676202      -32.7813340897       14.7933868354  MEMB      62              0.0000000000
      6774        62  SOPE      H2Y             2.5513355253      -32.5833183349       14.2530650275  MEMB      62              0.0000000000
      6775        62  SOPE      C23             2.0652282445      -35.5196362992       15.4380489058  MEMB      62              0.0000000000
      6776        62  SOPE      H3R             1.4653609113      -34.5973307839       15.3653767532  MEMB      62              0.0000000000
      6777        62  SOPE      H3S             1.3365583226      -36.2883609927       15.7672493455  MEMB      62              0.0000000000
      6778        62  SOPE      C24             2.5648747179      -35.9181052742       14.0494576626  MEMB      62              0.0000000000
      6779        62  SOPE      H4R             2.8941766524      -36.9660351070       14.1176514636  MEMB      62              0.0000000000
      6780        62  SOPE      H4S             1.7261656468      -35.9002301606       13.3183877507  MEMB      62              0.0000000000
      6781        62  SOPE      C25             3.7984592915      -35.1705620861       13.5378726028  MEMB      62              0.0000000000
      6782        62  SOPE      H5R             3.5918835760      -34.0998163889       13.3622994939  MEMB      62              0.0000000000
      6783        62  SOPE      H5S             4.5889733091      -35.2539499981       14.3165173368  MEMB      62              0.0000000000
      6784        62  SOPE      C26             4.3370668195      -35.8299386628       12.2665084639  MEMB      62              0.0000000000
      6785        62  SOPE      H6R             5.4458375440      -35.8397510239       12.2796198306  MEMB      62              0.0000000000
      6786        62  SOPE      H6S             4.0316953180      -36.9040705259       12.3138166928  MEMB      62              0.0000000000
      6787        62  SOPE      C27             3.8286979066      -35.1743465705       10.9620396977  MEMB      62              0.0000000000
      6788        62  SOPE      H7R             4.0700635036      -35.8443155859       10.1103339062  MEMB      62              0.0000000000
      6789        62  SOPE      H7S             2.7126903063      -35.1403763822       11.0339856537  MEMB      62              0.0000000000
      6790        62  SOPE      C28             4.3585330079      -33.7377811300       10.6080584800  MEMB      62              0.0000000000
      6791        62  SOPE      H8R             4.3429032885      -33.6113341129        9.5039949644  MEMB      62              0.0000000000
      6792        62  SOPE      H8S             3.5621316719      -33.0845944578       11.0235841493  MEMB      62              0.0000000000
      6793        62  SOPE      C29             5.6774102402      -33.2613562495       11.1919363171  MEMB      62              0.0000000000
      6794        62  SOPE      H91             5.6813220271      -33.4630950219       12.2757289115  MEMB      62              0.0000000000
      6795        62  SOPE      C210            6.8222375047      -32.6888849686       10.7014981003  MEMB      62              0.0000000000
      6796        62  SOPE      H101            7.6020655320      -32.5738968141       11.4666142386  MEMB      62              0.0000000000
      6797        62  SOPE      C211            7.4217393017      -32.2680987264        9.3541045032  MEMB      62              0.0000000000
      6798        62  SOPE      H11R            7.2900374227      -31.1805580109        9.2045278694  MEMB      62              0.0000000000
      6799        62  SOPE      H11S            6.9127666564      -32.7458555266        8.5061574028  MEMB      62              0.0000000000
      6800        62  SOPE      C212            8.9797632355      -32.4513948463        9.2353297278  MEMB      62              0.0000000000
      6801        62  SOPE      H12R            9.2782461420      -33.3900103259        9.7467807055  MEMB      62              0.0000000000
      6802        62  SOPE      H12S            9.3966113144      -31.6461205611        9.8513180862  MEMB      62              0.0000000000
      6803        62  SOPE      C213            9.6548078318      -32.4947506826        7.8078955264  MEMB      62              0.0000000000
      6804        62  SOPE      H13R           10.6759157860      -32.0557012997        7.8655016408  MEMB      62              0.0000000000
      6805        62  SOPE      H13S            9.0648579594      -31.8436989105        7.1358104760  MEMB      62              0.0000000000
      6806        62  SOPE      C214            9.7012146342      -34.0010984251        7.3723948315  MEMB      62              0.0000000000
      6807        62  SOPE      H14R            8.6271905332      -34.1197763568        7.2354183932  MEMB      62              0.0000000000
      6808        62  SOPE      H14S           10.1345616064      -34.5476537218        8.2401008814  MEMB      62              0.0000000000
      6809        62  SOPE      C215           10.1125133004      -34.7703479909        6.0670695010  MEMB      62              0.0000000000
      6810        62  SOPE      H15R           10.7305581242      -35.6436249997        6.4147463703  MEMB      62              0.0000000000
      6811        62  SOPE      H15S           10.7559015644      -34.1560201150        5.4180134302  MEMB      62              0.0000000000
      6812        62  SOPE      C216            8.9556307928      -35.5111749842        5.2836376534  MEMB      62              0.0000000000
      6813        62  SOPE      H16R            8.0285281905      -34.9063490485        5.2105120062  MEMB      62              0.0000000000
      6814        62  SOPE      H16S            8.6546097105      -36.4361133850        5.8374748127  MEMB      62              0.0000000000
      6815        62  SOPE      C217            9.3218326548      -35.9981881334        3.8594029943  MEMB      62              0.0000000000
      6816        62  SOPE      H17R            9.7495162507      -37.0206047353        3.9806292349  MEMB      62              0.0000000000
      6817        62  SOPE      H17S           10.1169464721      -35.3569939838        3.4193305452  MEMB      62              0.0000000000
      6818        62  SOPE      C218            8.1544994310      -36.1029254598        2.8562104177  MEMB      62              0.0000000000
      6819        62  SOPE      H18R            8.5379524492      -36.1819961802        1.8133716075  MEMB      62              0.0000000000
      6820        62  SOPE      H18S            7.4752907543      -35.2262243812        2.9069981009  MEMB      62              0.0000000000
      6821        62  SOPE      H18T            7.5495411411      -37.0096414905        3.0687828269  MEMB      62              0.0000000000
      6822        62  SOPE      C33             1.3282161865      -30.7888769874       14.1156653373  MEMB      62              0.0000000000
      6823        62  SOPE      H3X             1.6367252166      -29.9244759209       14.7460176868  MEMB      62              0.0000000000
      6824        62  SOPE      H3Y             0.2241173544      -30.7457257280       14.0242966515  MEMB      62              0.0000000000
      6825        62  SOPE      C34             1.9147259140      -30.5971836029       12.7029969948  MEMB      62              0.0000000000
      6826        62  SOPE      H4X             2.9938893035      -30.8625411478       12.7095238928  MEMB      62              0.0000000000
      6827        62  SOPE      H4Y             1.8358682687      -29.5071759243       12.4834761227  MEMB      62              0.0000000000
      6828        62  SOPE      C35             1.1978480059      -31.3197721440       11.5291416044  MEMB      62              0.0000000000
      6829        62  SOPE      H5X             0.1270386450      -31.0442434932       11.5538157137  MEMB      62              0.0000000000
      6830        62  SOPE      H5Y             1.2569592222      -32.4191344809       11.6776352187  MEMB      62              0.0000000000
      6831        62  SOPE      C36             1.8670782715      -30.9075011118       10.1871763247  MEMB      62              0.0000000000
      6832        62  SOPE      H6X             2.8956526471      -31.2966794971       10.3255611500  MEMB      62              0.0000000000
      6833        62  SOPE      H6Y             1.9509760206      -29.8081258613       10.1497667057  MEMB      62              0.0000000000
      6834        62  SOPE      C37             1.4155909762      -31.4628687628        8.8057400919  MEMB      62              0.0000000000
      6835        62  SOPE      H7X             0.6565669134      -32.2551186324        8.9766232317  MEMB      62              0.0000000000
      6836        62  SOPE      H7Y             2.3062389388      -31.9723736491        8.3680174379  MEMB      62              0.0000000000
      6837        62  SOPE      C38             0.9006396968      -30.5121319297        7.6722150144  MEMB      62              0.0000000000
      6838        62  SOPE      H8X            -0.1164164924      -30.1536266601        7.8904605642  MEMB      62              0.0000000000
      6839        62  SOPE      H8Y             0.7834704952      -31.1474481362        6.7653871534  MEMB      62              0.0000000000
      6840        62  SOPE      C39             1.6749919296      -29.2539966092        7.2122917075  MEMB      62              0.0000000000
      6841        62  SOPE      H9X             2.4121918144      -28.9281711997        7.9673408234  MEMB      62              0.0000000000
      6842        62  SOPE      H9Y             0.9378480728      -28.4256568455        7.1392192142  MEMB      62              0.0000000000
      6843        62  SOPE      C310            2.2821757262      -29.4303234565        5.7987648268  MEMB      62              0.0000000000
      6844        62  SOPE      H10X            1.4593255634      -29.6828417101        5.0881230204  MEMB      62              0.0000000000
      6845        62  SOPE      H10Y            2.9549726630      -30.3072589437        5.8370008661  MEMB      62              0.0000000000
      6846        62  SOPE      C311            3.0369058633      -28.2024977078        5.2375062026  MEMB      62              0.0000000000
      6847        62  SOPE      H11X            3.3249279717      -27.5466889316        6.0884262346  MEMB      62              0.0000000000
      6848        62  SOPE      H11Y            2.3257580955      -27.6170209459        4.6155515338  MEMB      62              0.0000000000
      6849        62  SOPE      C312            4.3277577790      -28.4444879190        4.4070814137  MEMB      62              0.0000000000
      6850        62  SOPE      H12X            5.1991322244      -28.2688521792        5.0720279178  MEMB      62              0.0000000000
      6851        62  SOPE      H12Y            4.3945958523      -27.6932174626        3.5964399759  MEMB      62              0.0000000000
      6852        62  SOPE      C313            4.5205079572      -29.8265308350        3.7769807448  MEMB      62              0.0000000000
      6853        62  SOPE      H13X            3.5858781162      -30.4186646103        3.8564639560  MEMB      62              0.0000000000
      6854        62  SOPE      H13Y            5.3006719507      -30.3402676122        4.3470599306  MEMB      62              0.0000000000
      6855        62  SOPE      C314            5.0933258753      -29.9288791145        2.3595355652  MEMB      62              0.0000000000
      6856        62  SOPE      H14X            6.1990390841      -30.0465352184        2.3662858351  MEMB      62              0.0000000000
      6857        62  SOPE      H14Y            4.8659384751      -29.0157382145        1.7829940859  MEMB      62              0.0000000000
      6858        62  SOPE      C315            4.4947482245      -31.1980173178        1.7772974597  MEMB      62              0.0000000000
      6859        62  SOPE      H15X            3.4137143302      -31.1702472809        2.0451217624  MEMB      62              0.0000000000
      6860        62  SOPE      H15Y            4.9084776465      -32.0895949993        2.2956890278  MEMB      62              0.0000000000
      6861        62  SOPE      C316            4.6376079624      -31.3907311038        0.2772305244  MEMB      62              0.0000000000
      6862        62  SOPE      H16X            4.9772171269      -32.4511102507        0.1582319677  MEMB      62              0.0000000000
      6863        62  SOPE      H16Y            5.4425489386      -30.7885517283       -0.1844558874  MEMB      62              0.0000000000
      6864        62  SOPE      C317            3.2551535779      -31.2163663153       -0.3810258045  MEMB      62              0.0000000000
      6865        62  SOPE      H17X            2.4499841482      -31.3299724931        0.3757521536  MEMB      62              0.0000000000
      6866        62  SOPE      H17Y            3.1228255083      -32.0895025616       -1.0440192072  MEMB      62              0.0000000000
      6867        62  SOPE      C318            2.9350099707      -29.9544689894       -1.1937499407  MEMB      62              0.0000000000
      6868        62  SOPE      H18X            2.4867049080      -29.1321877882       -0.6312681653  MEMB      62              0.0000000000
      6869        62  SOPE      H18Y            2.1495429451      -30.2346217608       -1.9210680503  MEMB      62              0.0000000000
      6870        62  SOPE      H18Z            3.8140018986      -29.5252715725       -1.7140314698  MEMB      62              0.0000000000
      6871        63  SAPS      N              30.9617241541      -14.8830274521       21.8045695531  MEMB      63              0.0000000000
      6872        63  SAPS      HN1            31.9067845292      -15.1918504759       22.0999161823  MEMB      63              0.0000000000
      6873        63  SAPS      HN2            30.2379384947      -15.0599179331       22.5475052399  MEMB      63              0.0000000000
      6874        63  SAPS      HN3            30.7139267566      -15.4556026511       20.9597438947  MEMB      63              0.0000000000
      6875        63  SAPS      C12            30.9617678857      -13.4656425488       21.4117566518  MEMB      63              0.0000000000
      6876        63  SAPS      H12A           29.9491873438      -13.1942574233       21.1414660929  MEMB      63              0.0000000000
      6877        63  SAPS      C13            31.4060422024      -12.5840319554       22.5816292692  MEMB      63              0.0000000000
      6878        63  SAPS      O13A           32.0505185224      -13.0740634535       23.5511828449  MEMB      63              0.0000000000
      6879        63  SAPS      O13B           31.0221153948      -11.3851166192       22.5549458158  MEMB      63              0.0000000000
      6880        63  SAPS      C11            31.9787371277      -13.2017867021       20.2484406272  MEMB      63              0.0000000000
      6881        63  SAPS      H11A           33.0169222589      -13.2448461990       20.6488020374  MEMB      63              0.0000000000
      6882        63  SAPS      H11B           31.7968098282      -12.1497356691       19.9292852090  MEMB      63              0.0000000000
      6883        63  SAPS      P              32.1947244399      -15.5661622132       19.0376348755  MEMB      63              0.0000000000
      6884        63  SAPS      O13            32.5253728736      -15.9692554359       17.6705427457  MEMB      63              0.0000000000
      6885        63  SAPS      O14            33.1988942134      -15.8105388971       20.1063815359  MEMB      63              0.0000000000
      6886        63  SAPS      O12            31.8485020518      -14.0267077478       19.0886724616  MEMB      63              0.0000000000
      6887        63  SAPS      O11            30.7801884701      -16.1533678656       19.4738036809  MEMB      63              0.0000000000
      6888        63  SAPS      C1             29.5711175579      -15.5042588061       19.0445579925  MEMB      63              0.0000000000
      6889        63  SAPS      HA             28.7935196306      -15.6880614011       19.8216363268  MEMB      63              0.0000000000
      6890        63  SAPS      HB             29.6467540287      -14.3992833936       18.9241730622  MEMB      63              0.0000000000
      6891        63  SAPS      C2             29.0282714138      -16.1199595904       17.7384570677  MEMB      63              0.0000000000
      6892        63  SAPS      HS             28.9514906177      -17.2049070428       17.9961471764  MEMB      63              0.0000000000
      6893        63  SAPS      O21            29.9109231168      -15.8204834937       16.6061945090  MEMB      63              0.0000000000
      6894        63  SAPS      C21            30.2185003308      -16.9152960006       15.9015517195  MEMB      63              0.0000000000
      6895        63  SAPS      O22            29.8523009737      -18.0443201299       16.1974606967  MEMB      63              0.0000000000
      6896        63  SAPS      C22            30.9487864511      -16.6541177962       14.5441939692  MEMB      63              0.0000000000
      6897        63  SAPS      H2R            31.1194017075      -17.6737587777       14.1463727031  MEMB      63              0.0000000000
      6898        63  SAPS      H2S            30.2481507212      -16.1360316830       13.8614883216  MEMB      63              0.0000000000
      6899        63  SAPS      C3             27.5725466176      -15.5923216574       17.4808274870  MEMB      63              0.0000000000
      6900        63  SAPS      HX             26.9964814261      -15.7826341972       18.4133857220  MEMB      63              0.0000000000
      6901        63  SAPS      HY             27.0495732219      -16.2089102347       16.7280224036  MEMB      63              0.0000000000
      6902        63  SAPS      O31            27.4981309474      -14.1816067926       17.1602061533  MEMB      63              0.0000000000
      6903        63  SAPS      C31            27.7337754484      -13.9628020870       15.8618148833  MEMB      63              0.0000000000
      6904        63  SAPS      O32            27.9692818109      -14.8082221171       15.0216276060  MEMB      63              0.0000000000
      6905        63  SAPS      C32            27.5866102629      -12.4850232791       15.5552641285  MEMB      63              0.0000000000
      6906        63  SAPS      H2X            26.6070573760      -12.1338039009       15.9449800682  MEMB      63              0.0000000000
      6907        63  SAPS      H2Y            27.5714114832      -12.3830046201       14.4502110480  MEMB      63              0.0000000000
      6908        63  SAPS      C23            32.3117822827      -15.8959698617       14.5679598131  MEMB      63              0.0000000000
      6909        63  SAPS      H3R            32.9024616917      -16.2959494617       15.4250384835  MEMB      63              0.0000000000
      6910        63  SAPS      H3S            32.0945056263      -14.8315305946       14.7920390639  MEMB      63              0.0000000000
      6911        63  SAPS      C24            33.3296017980      -15.9598456636       13.3693381931  MEMB      63              0.0000000000
      6912        63  SAPS      H4R            33.8552897026      -16.9375286594       13.3756157781  MEMB      63              0.0000000000
      6913        63  SAPS      H4S            34.0846908082      -15.2474881512       13.7510054193  MEMB      63              0.0000000000
      6914        63  SAPS      C25            33.0722156381      -15.5093074803       11.9407726135  MEMB      63              0.0000000000
      6915        63  SAPS      H5R            33.6922999985      -14.6613989237       11.6171409754  MEMB      63              0.0000000000
      6916        63  SAPS      C26            32.4882574647      -16.2331707684       10.9688282954  MEMB      63              0.0000000000
      6917        63  SAPS      H6R            32.2649426373      -15.8184892670        9.9751470075  MEMB      63              0.0000000000
      6918        63  SAPS      C27            32.0452947461      -17.6174761698       11.2569316176  MEMB      63              0.0000000000
      6919        63  SAPS      H7R            31.4970120177      -17.5721643765       12.2198901732  MEMB      63              0.0000000000
      6920        63  SAPS      H7S            33.0013391922      -18.1182763529       11.4262610431  MEMB      63              0.0000000000
      6921        63  SAPS      C28            31.2695639888      -18.6038167596       10.4533644843  MEMB      63              0.0000000000
      6922        63  SAPS      H8R            30.9886963145      -19.4389198919       11.1077658101  MEMB      63              0.0000000000
      6923        63  SAPS      C29            30.8743771885      -18.7475164460        9.1878156627  MEMB      63              0.0000000000
      6924        63  SAPS      H9R            30.2308669055      -19.6355010286        9.0673676111  MEMB      63              0.0000000000
      6925        63  SAPS      C210           30.9619775650      -17.8938874798        7.9422466872  MEMB      63              0.0000000000
      6926        63  SAPS      H10R           31.9864857868      -17.4876622290        7.7731241141  MEMB      63              0.0000000000
      6927        63  SAPS      H10S           30.2968727696      -17.0167491832        8.0393983968  MEMB      63              0.0000000000
      6928        63  SAPS      C211           30.4635692609      -18.7871275200        6.8162864994  MEMB      63              0.0000000000
      6929        63  SAPS      H11R           29.5457839192      -19.3471125944        7.0628333367  MEMB      63              0.0000000000
      6930        63  SAPS      C212           30.9482387529      -18.9748631936        5.5816435198  MEMB      63              0.0000000000
      6931        63  SAPS      H12R           30.4696406778      -19.7331569620        4.9393146647  MEMB      63              0.0000000000
      6932        63  SAPS      C213           32.1575016638      -18.3227413964        4.9942942591  MEMB      63              0.0000000000
      6933        63  SAPS      H13R           32.7798923514      -17.8428261264        5.7737362405  MEMB      63              0.0000000000
      6934        63  SAPS      H13S           31.7652112193      -17.4774182141        4.3906521615  MEMB      63              0.0000000000
      6935        63  SAPS      C214           33.0515895383      -19.2229713602        4.1796131537  MEMB      63              0.0000000000
      6936        63  SAPS      H14R           33.1110255908      -20.2771864350        4.4759314849  MEMB      63              0.0000000000
      6937        63  SAPS      C215           33.3637389869      -18.9798249744        2.9116962634  MEMB      63              0.0000000000
      6938        63  SAPS      H15R           33.9856244773      -19.6907334814        2.3389026644  MEMB      63              0.0000000000
      6939        63  SAPS      C216           32.8434943105      -17.7965444091        2.1509709946  MEMB      63              0.0000000000
      6940        63  SAPS      H16R           33.4927293862      -17.6885975548        1.2744716282  MEMB      63              0.0000000000
      6941        63  SAPS      H16S           32.8968783711      -16.8540241182        2.7351120237  MEMB      63              0.0000000000
      6942        63  SAPS      C217           31.3843118275      -18.0987124388        1.6957342469  MEMB      63              0.0000000000
      6943        63  SAPS      H17R           31.0815417497      -17.4282092846        0.8629603268  MEMB      63              0.0000000000
      6944        63  SAPS      H17S           30.6908212089      -17.9108728835        2.5465739448  MEMB      63              0.0000000000
      6945        63  SAPS      C218           31.2603063305      -19.5712571083        1.2742135663  MEMB      63              0.0000000000
      6946        63  SAPS      H18R           31.0271538247      -20.2366493856        2.1344919392  MEMB      63              0.0000000000
      6947        63  SAPS      H18S           32.2836666030      -19.8247259260        0.9021109824  MEMB      63              0.0000000000
      6948        63  SAPS      C219           30.4384934449      -19.9681130213        0.0707559805  MEMB      63              0.0000000000
      6949        63  SAPS      H19R           30.5331670670      -19.1956061057       -0.7087237490  MEMB      63              0.0000000000
      6950        63  SAPS      H19S           29.3558284212      -20.0535407871        0.2777066539  MEMB      63              0.0000000000
      6951        63  SAPS      C220           31.0189587922      -21.3015995569       -0.4043536247  MEMB      63              0.0000000000
      6952        63  SAPS      H20R           32.1258444646      -21.3350802133       -0.3432820680  MEMB      63              0.0000000000
      6953        63  SAPS      H20S           30.7956299508      -21.4548857663       -1.4625176238  MEMB      63              0.0000000000
      6954        63  SAPS      H20T           30.6143149281      -22.1434471467        0.1925700351  MEMB      63              0.0000000000
      6955        63  SAPS      C33            28.7321696551      -11.6508869646       16.1647381052  MEMB      63              0.0000000000
      6956        63  SAPS      H3X            28.6741439971      -11.6431203893       17.2739660235  MEMB      63              0.0000000000
      6957        63  SAPS      H3Y            28.5867548256      -10.6054892574       15.8115968612  MEMB      63              0.0000000000
      6958        63  SAPS      C34            30.1198409817      -12.0976490264       15.6962164193  MEMB      63              0.0000000000
      6959        63  SAPS      H4X            30.2190735573      -13.2062896509       15.7195071417  MEMB      63              0.0000000000
      6960        63  SAPS      H4Y            30.9042777098      -11.6936346313       16.3729371137  MEMB      63              0.0000000000
      6961        63  SAPS      C35            30.3611562731      -11.5635144071       14.2842507469  MEMB      63              0.0000000000
      6962        63  SAPS      H5X            30.3763366649      -10.4523172319       14.3252257578  MEMB      63              0.0000000000
      6963        63  SAPS      H5Y            29.5134856789      -11.8610877426       13.6250794845  MEMB      63              0.0000000000
      6964        63  SAPS      C36            31.6460392356      -12.0500358073       13.6241211936  MEMB      63              0.0000000000
      6965        63  SAPS      H6X            31.5751941601      -13.1552332832       13.4984264934  MEMB      63              0.0000000000
      6966        63  SAPS      H6Y            32.5319983865      -11.8513757789       14.2661711968  MEMB      63              0.0000000000
      6967        63  SAPS      C37            31.8079786514      -11.3681793090       12.2607571028  MEMB      63              0.0000000000
      6968        63  SAPS      H7X            32.6483823057      -10.6415817020       12.3155796649  MEMB      63              0.0000000000
      6969        63  SAPS      H7Y            30.8780805322      -10.8079371198       12.0250537939  MEMB      63              0.0000000000
      6970        63  SAPS      C38            32.0386095232      -12.3800807213       11.1428317245  MEMB      63              0.0000000000
      6971        63  SAPS      H8X            32.8283736438      -13.0222061632       11.5506387263  MEMB      63              0.0000000000
      6972        63  SAPS      H8Y            32.4988380072      -11.9384695428       10.2470328176  MEMB      63              0.0000000000
      6973        63  SAPS      C39            30.7717736013      -13.1755518429       10.7682413779  MEMB      63              0.0000000000
      6974        63  SAPS      H9X            30.2187133281      -13.4314631988       11.6986099689  MEMB      63              0.0000000000
      6975        63  SAPS      H9Y            31.0666799724      -14.1295733239       10.2921523148  MEMB      63              0.0000000000
      6976        63  SAPS      C310           29.8147744545      -12.4754413067        9.7867982006  MEMB      63              0.0000000000
      6977        63  SAPS      H10X           29.5770234785      -11.4644644699       10.1891139620  MEMB      63              0.0000000000
      6978        63  SAPS      H10Y           28.8620633011      -13.0486004280        9.7355962910  MEMB      63              0.0000000000
      6979        63  SAPS      C311           30.3861286108      -12.3338561159        8.3664770084  MEMB      63              0.0000000000
      6980        63  SAPS      H11X           31.4598499641      -12.0556833791        8.4351474528  MEMB      63              0.0000000000
      6981        63  SAPS      H11Y           29.8720438915      -11.4993574828        7.8382142558  MEMB      63              0.0000000000
      6982        63  SAPS      C312           30.3134199339      -13.5878220995        7.4829642110  MEMB      63              0.0000000000
      6983        63  SAPS      H12X           29.2690882976      -13.7631397150        7.1461784075  MEMB      63              0.0000000000
      6984        63  SAPS      H12Y           30.6385144413      -14.4833025979        8.0586804261  MEMB      63              0.0000000000
      6985        63  SAPS      C313           31.2507393000      -13.3940529076        6.2831768176  MEMB      63              0.0000000000
      6986        63  SAPS      H13X           32.2853389363      -13.3299929519        6.6900538145  MEMB      63              0.0000000000
      6987        63  SAPS      H13Y           31.0221939341      -12.4156197784        5.8006803394  MEMB      63              0.0000000000
      6988        63  SAPS      C314           31.1926050669      -14.4875971206        5.2102486716  MEMB      63              0.0000000000
      6989        63  SAPS      H14X           30.1503170233      -14.5638025258        4.8249895588  MEMB      63              0.0000000000
      6990        63  SAPS      H14Y           31.4531182469      -15.4695958304        5.6648737323  MEMB      63              0.0000000000
      6991        63  SAPS      C315           32.1484498769      -14.1963647910        4.0342949350  MEMB      63              0.0000000000
      6992        63  SAPS      H15X           31.8648025180      -13.2210650685        3.5774731521  MEMB      63              0.0000000000
      6993        63  SAPS      H15Y           32.0084229366      -14.9771811830        3.2570469898  MEMB      63              0.0000000000
      6994        63  SAPS      C316           33.6300709210      -14.1398674860        4.4551190252  MEMB      63              0.0000000000
      6995        63  SAPS      H16X           33.9122007771      -15.0948453908        4.9503690442  MEMB      63              0.0000000000
      6996        63  SAPS      H16Y           33.7519048459      -13.3200943979        5.1998257562  MEMB      63              0.0000000000
      6997        63  SAPS      C317           34.6168293537      -13.8336155086        3.3188282878  MEMB      63              0.0000000000
      6998        63  SAPS      H17X           35.5896754195      -13.5287213800        3.7730720593  MEMB      63              0.0000000000
      6999        63  SAPS      H17Y           34.2337764410      -12.9733382527        2.7350673209  MEMB      63              0.0000000000
      7000        63  SAPS      C318           34.8897934279      -14.9694548565        2.3426938487  MEMB      63              0.0000000000
      7001        63  SAPS      H18X           35.6933379659      -14.6533154261        1.6452948372  MEMB      63              0.0000000000
      7002        63  SAPS      H18Y           33.9821534319      -15.1968728192        1.7458818715  MEMB      63              0.0000000000
      7003        63  SAPS      H18Z           35.2186256287      -15.8917011698        2.8673019192  MEMB      63              0.0000000000
      7004        64  OSM       N              31.8052152687       -7.3778030131       22.2865713784  MEMB      64              0.0000000000
      7005        64  OSM       C15            32.8795462563       -7.0176854635       23.2728842155  MEMB      64              0.0000000000
      7006        64  OSM       H15A           32.7873778551       -6.0050349653       23.6389131264  MEMB      64              0.0000000000
      7007        64  OSM       H15B           33.8428802681       -7.0795170037       22.7531868953  MEMB      64              0.0000000000
      7008        64  OSM       H15C           32.9268175625       -7.7117846861       24.1070642759  MEMB      64              0.0000000000
      7009        64  OSM       C14            31.9623150127       -8.8463969298       22.0289477757  MEMB      64              0.0000000000
      7010        64  OSM       H14A           31.1966746331       -9.2751089761       21.3918439654  MEMB      64              0.0000000000
      7011        64  OSM       H14B           31.8896633711       -9.4209242473       22.9508168164  MEMB      64              0.0000000000
      7012        64  OSM       H14C           32.9319122946       -9.0875786858       21.5948163389  MEMB      64              0.0000000000
      7013        64  OSM       C13            30.4500197704       -7.1263843672       22.8649029472  MEMB      64              0.0000000000
      7014        64  OSM       H13A           30.3759302947       -7.5552727497       23.8602011345  MEMB      64              0.0000000000
      7015        64  OSM       H13B           29.6689039630       -7.5831483955       22.2673958669  MEMB      64              0.0000000000
      7016        64  OSM       H13C           30.2565824097       -6.0684163318       22.9500388513  MEMB      64              0.0000000000
      7017        64  OSM       C12            32.0239627690       -6.6348527813       20.9889276674  MEMB      64              0.0000000000
      7018        64  OSM       H12A           32.0190576286       -5.5653337717       21.1635487206  MEMB      64              0.0000000000
      7019        64  OSM       H12B           31.2116996663       -6.8488166335       20.3116520325  MEMB      64              0.0000000000
      7020        64  OSM       C11            33.3544669399       -6.9375380015       20.2783323770  MEMB      64              0.0000000000
      7021        64  OSM       H11A           33.2518108366       -6.5553469447       19.2346380798  MEMB      64              0.0000000000
      7022        64  OSM       H11B           33.5500238184       -8.0274963601       20.1825049275  MEMB      64              0.0000000000
      7023        64  OSM       P              35.8742779648       -6.4239447430       20.3735803036  MEMB      64              0.0000000000
      7024        64  OSM       O13            36.7563358207       -5.4598365698       21.0776106142  MEMB      64              0.0000000000
      7025        64  OSM       O14            36.2097778435       -7.8608316014       20.3692593159  MEMB      64              0.0000000000
      7026        64  OSM       O11            35.5926125580       -5.9012345801       18.9073529334  MEMB      64              0.0000000000
      7027        64  OSM       O12            34.4176279022       -6.2955748617       20.9947946982  MEMB      64              0.0000000000
      7028        64  OSM       C1S            34.9102717171       -4.6562359034       18.7082605435  MEMB      64              0.0000000000
      7029        64  OSM       H1S            35.4649829704       -3.8223965742       19.1964069496  MEMB      64              0.0000000000
      7030        64  OSM       H1T            33.8722359330       -4.6340899516       19.1061326997  MEMB      64              0.0000000000
      7031        64  OSM       NF             33.7809497896       -5.0833837660       16.5374507609  MEMB      64              0.0000000000
      7032        64  OSM       HNF            33.9932121737       -5.9803124082       16.1640618302  MEMB      64              0.0000000000
      7033        64  OSM       C2S            34.8798048203       -4.3894513283       17.1957540740  MEMB      64              0.0000000000
      7034        64  OSM       H2S            34.7357252313       -3.2916741989       17.0601331454  MEMB      64              0.0000000000
      7035        64  OSM       C3S            36.2461858390       -4.8121179807       16.6307692981  MEMB      64              0.0000000000
      7036        64  OSM       H3S            36.3116822360       -5.9175227397       16.5264086122  MEMB      64              0.0000000000
      7037        64  OSM       O3             37.3468808296       -4.4314782187       17.4581303420  MEMB      64              0.0000000000
      7038        64  OSM       HO3            37.2697799336       -5.0584954577       18.1958637280  MEMB      64              0.0000000000
      7039        64  OSM       C4S            36.3757952874       -4.1732139478       15.2980640602  MEMB      64              0.0000000000
      7040        64  OSM       H4S            36.7170953657       -3.1349107748       15.3296273114  MEMB      64              0.0000000000
      7041        64  OSM       C5S            36.1287838073       -4.7528014319       14.1189406876  MEMB      64              0.0000000000
      7042        64  OSM       H5S            35.8002177286       -5.8030371539       14.0810195180  MEMB      64              0.0000000000
      7043        64  OSM       C6S            36.2903409122       -4.0504792770       12.8084266415  MEMB      64              0.0000000000
      7044        64  OSM       H6S            35.7455343699       -4.5998816841       12.0097318627  MEMB      64              0.0000000000
      7045        64  OSM       H6T            37.3768505222       -4.1333326023       12.6019488080  MEMB      64              0.0000000000
      7046        64  OSM       C7S            35.9789525314       -2.5433140666       12.6405810831  MEMB      64              0.0000000000
      7047        64  OSM       H7S            36.3358591839       -2.2264605540       11.6339915177  MEMB      64              0.0000000000
      7048        64  OSM       H7T            36.5887535017       -1.9611088297       13.3614119904  MEMB      64              0.0000000000
      7049        64  OSM       C8S            34.5017636255       -2.1480367779       12.7962745624  MEMB      64              0.0000000000
      7050        64  OSM       H8S            34.4332700705       -1.0381367250       12.8167688019  MEMB      64              0.0000000000
      7051        64  OSM       H8T            34.1232188266       -2.5199060623       13.7714572003  MEMB      64              0.0000000000
      7052        64  OSM       C9S            33.5732349673       -2.6053079476       11.6635955995  MEMB      64              0.0000000000
      7053        64  OSM       H9S            32.5328531124       -2.3165171759       11.9373453571  MEMB      64              0.0000000000
      7054        64  OSM       H9T            33.6047320591       -3.7113011673       11.5740739012  MEMB      64              0.0000000000
      7055        64  OSM       C10S           33.8965035413       -1.9534585458       10.3100567062  MEMB      64              0.0000000000
      7056        64  OSM       H10S           34.8885412028       -2.3015489272        9.9500594300  MEMB      64              0.0000000000
      7057        64  OSM       H10T           33.9659332438       -0.8506041380       10.4437986727  MEMB      64              0.0000000000
      7058        64  OSM       C11S           32.8318714400       -2.2453113281        9.2427751960  MEMB      64              0.0000000000
      7059        64  OSM       H11S           33.1455180815       -1.7937836310        8.2760283589  MEMB      64              0.0000000000
      7060        64  OSM       H11T           31.9017120053       -1.7242570344        9.5518974631  MEMB      64              0.0000000000
      7061        64  OSM       C12S           32.5299450883       -3.7414489463        9.0436480296  MEMB      64              0.0000000000
      7062        64  OSM       H12S           31.7903177306       -3.8752220711        8.2263771245  MEMB      64              0.0000000000
      7063        64  OSM       H12T           32.0625426259       -4.1525581874        9.9653750008  MEMB      64              0.0000000000
      7064        64  OSM       C13S           33.7706371151       -4.5698819021        8.6947178257  MEMB      64              0.0000000000
      7065        64  OSM       H13S           33.4921943042       -5.6432899590        8.6612322903  MEMB      64              0.0000000000
      7066        64  OSM       H13T           34.5251860231       -4.4525173318        9.5052053056  MEMB      64              0.0000000000
      7067        64  OSM       C14S           34.4029817355       -4.1657149590        7.3583415773  MEMB      64              0.0000000000
      7068        64  OSM       H14S           35.3837240770       -4.6630512605        7.2606986011  MEMB      64              0.0000000000
      7069        64  OSM       H14T           34.6151441651       -3.0754484562        7.3560363393  MEMB      64              0.0000000000
      7070        64  OSM       C15S           33.5832923861       -4.5352665042        6.1137663796  MEMB      64              0.0000000000
      7071        64  OSM       H15S           32.6002994990       -4.0168168556        6.1399073275  MEMB      64              0.0000000000
      7072        64  OSM       H15T           33.3915969542       -5.6310454369        6.1039520190  MEMB      64              0.0000000000
      7073        64  OSM       C16S           34.3530990625       -4.1281320443        4.8499634553  MEMB      64              0.0000000000
      7074        64  OSM       H16S           35.3226862335       -4.6748660683        4.8253984583  MEMB      64              0.0000000000
      7075        64  OSM       H16T           34.5823042545       -3.0409542560        4.9300647584  MEMB      64              0.0000000000
      7076        64  OSM       C17S           33.6113537666       -4.3688726256        3.5304469659  MEMB      64              0.0000000000
      7077        64  OSM       H17S           32.5825506039       -3.9482974174        3.6101658693  MEMB      64              0.0000000000
      7078        64  OSM       H17T           33.5118278890       -5.4663532426        3.3605777497  MEMB      64              0.0000000000
      7079        64  OSM       C18S           34.3313035754       -3.7171853918        2.3429024080  MEMB      64              0.0000000000
      7080        64  OSM       H18S           35.3541205982       -4.1350728345        2.2281552005  MEMB      64              0.0000000000
      7081        64  OSM       H18T           34.4265506871       -2.6210968543        2.4986466591  MEMB      64              0.0000000000
      7082        64  OSM       H18U           33.7758672944       -3.8913896586        1.3982728333  MEMB      64              0.0000000000
      7083        64  OSM       C1F            32.5474286706       -4.6084609021       16.5713698441  MEMB      64              0.0000000000
      7084        64  OSM       OF             32.2080473076       -3.8238440091       17.4420492009  MEMB      64              0.0000000000
      7085        64  OSM       C2F            31.6115290184       -5.0822331512       15.5184881298  MEMB      64              0.0000000000
      7086        64  OSM       H2F            30.5831104742       -4.7832914133       15.8057235284  MEMB      64              0.0000000000
      7087        64  OSM       H2G            31.6605936766       -6.1882193898       15.4580463874  MEMB      64              0.0000000000
      7088        64  OSM       C3F            31.9648286596       -4.4405913891       14.1603299221  MEMB      64              0.0000000000
      7089        64  OSM       H3F            33.0351716063       -4.6067441702       13.9013106662  MEMB      64              0.0000000000
      7090        64  OSM       H3G            31.8054823599       -3.3390944336       14.2256743562  MEMB      64              0.0000000000
      7091        64  OSM       C4F            31.1011194813       -4.9866187191       13.0225626980  MEMB      64              0.0000000000
      7092        64  OSM       H4F            31.2204897328       -4.3402989874       12.1214970855  MEMB      64              0.0000000000
      7093        64  OSM       H4G            30.0286819344       -4.9676080606       13.3161342612  MEMB      64              0.0000000000
      7094        64  OSM       C5F            31.4617589221       -6.4090735308       12.6263471041  MEMB      64              0.0000000000
      7095        64  OSM       H5F            31.5090008151       -7.0742646027       13.5170853819  MEMB      64              0.0000000000
      7096        64  OSM       H5G            32.4727513042       -6.4121814044       12.1545567953  MEMB      64              0.0000000000
      7097        64  OSM       C6F            30.4195926598       -6.9613393986       11.6583541994  MEMB      64              0.0000000000
      7098        64  OSM       H6F            30.2770430572       -6.2575272593       10.8063449443  MEMB      64              0.0000000000
      7099        64  OSM       H6G            29.4434520009       -7.0738887299       12.1809772092  MEMB      64              0.0000000000
      7100        64  OSM       C7F            30.8664802112       -8.3077293468       11.1208037399  MEMB      64              0.0000000000
      7101        64  OSM       H7F            30.0200248980       -9.0310763384       11.1359714108  MEMB      64              0.0000000000
      7102        64  OSM       H7G            31.6441269981       -8.6881153821       11.8280674418  MEMB      64              0.0000000000
      7103        64  OSM       C8F            31.4239437055       -8.1994785895        9.6965320738  MEMB      64              0.0000000000
      7104        64  OSM       H8F            32.0186876272       -7.2694825187        9.5820149512  MEMB      64              0.0000000000
      7105        64  OSM       H8G            30.5830660056       -8.1666338193        8.9704572821  MEMB      64              0.0000000000
      7106        64  OSM       C9F            32.2433690250       -9.4315158229        9.5018386068  MEMB      64              0.0000000000
      7107        64  OSM       H9F            31.6321345056      -10.3369147517        9.5332460545  MEMB      64              0.0000000000
      7108        64  OSM       C10F           33.5565028797       -9.5408582580        9.2682141129  MEMB      64              0.0000000000
      7109        64  OSM       H10F           33.9652958592      -10.5510511586        9.1478589004  MEMB      64              0.0000000000
      7110        64  OSM       C11F           34.5490324443       -8.4178354190        9.1276682381  MEMB      64              0.0000000000
      7111        64  OSM       H11F           35.4634848976       -8.5957663452        9.7377055893  MEMB      64              0.0000000000
      7112        64  OSM       H11G           34.1333828868       -7.4556595835        9.4896056993  MEMB      64              0.0000000000
      7113        64  OSM       C12F           34.9422545861       -8.2986600530        7.6379761185  MEMB      64              0.0000000000
      7114        64  OSM       H12F           35.7311628057       -9.0425769115        7.4054314125  MEMB      64              0.0000000000
      7115        64  OSM       H12G           35.3560559667       -7.2956859588        7.4483570195  MEMB      64              0.0000000000
      7116        64  OSM       C13F           33.8035540297       -8.4982205280        6.6330417012  MEMB      64              0.0000000000
      7117        64  OSM       H13F           32.9782881912       -7.7891744257        6.8657365926  MEMB      64              0.0000000000
      7118        64  OSM       H13G           33.4074677329       -9.5337237871        6.7416127417  MEMB      64              0.0000000000
      7119        64  OSM       C14F           34.2117397644       -8.3620948763        5.1607933671  MEMB      64              0.0000000000
      7120        64  OSM       H14F           35.0513229022       -9.0613808948        4.9538666041  MEMB      64              0.0000000000
      7121        64  OSM       H14G           34.5597561174       -7.3306225499        4.9362425707  MEMB      64              0.0000000000
      7122        64  OSM       C15F           32.9918976210       -8.7282684685        4.3116132580  MEMB      64              0.0000000000
      7123        64  OSM       H15F           32.2658834038       -7.8831185845        4.3500141224  MEMB      64              0.0000000000
      7124        64  OSM       H15G           32.4963835255       -9.6054765772        4.7912004572  MEMB      64              0.0000000000
      7125        64  OSM       C16F           33.2296355852       -9.1201108833        2.8498291011  MEMB      64              0.0000000000
      7126        64  OSM       H16F           33.4757048651       -8.2329545318        2.2302478630  MEMB      64              0.0000000000
      7127        64  OSM       H16G           32.2534225094       -9.5249173105        2.5161159938  MEMB      64              0.0000000000
      7128        64  OSM       C17F           34.2200020329      -10.2565108118        2.5848199250  MEMB      64              0.0000000000
      7129        64  OSM       H17F           34.0020982137      -11.0720013651        3.3058947330  MEMB      64              0.0000000000
      7130        64  OSM       H17G           35.2563546319       -9.9109766922        2.7820742682  MEMB      64              0.0000000000
      7131        64  OSM       C18F           34.0968190768      -10.7896790879        1.1480484111  MEMB      64              0.0000000000
      7132        64  OSM       H18F           35.0359198583      -11.2784599242        0.8142245463  MEMB      64              0.0000000000
      7133        64  OSM       H18G           33.8713450965       -9.9574537098        0.4478842986  MEMB      64              0.0000000000
      7134        64  OSM       H18H           33.2682008704      -11.5266923942        1.0728116772  MEMB      64              0.0000000000
      7135        65  SAPE      N              22.3803774457       24.6559862623       22.5914600256  MEMB      65              0.0000000000
      7136        65  SAPE      HN1            21.4653124887       24.5339894372       23.0801767267  MEMB      65              0.0000000000
      7137        65  SAPE      HN2            22.2195796370       24.6523490652       21.5522277559  MEMB      65              0.0000000000
      7138        65  SAPE      HN3            23.0551105351       23.8861595542       22.7937678973  MEMB      65              0.0000000000
      7139        65  SAPE      C12            23.0348820650       26.0037323923       22.7675295484  MEMB      65              0.0000000000
      7140        65  SAPE      H12A           23.5049495035       26.0527032064       23.7682510008  MEMB      65              0.0000000000
      7141        65  SAPE      H12B           22.2327856481       26.7675087106       22.6889268613  MEMB      65              0.0000000000
      7142        65  SAPE      C11            24.0469946379       26.2123933507       21.6259938124  MEMB      65              0.0000000000
      7143        65  SAPE      H11A           25.0174615807       25.7275029556       21.8657518122  MEMB      65              0.0000000000
      7144        65  SAPE      H11B           24.2434606055       27.3033557488       21.4850688668  MEMB      65              0.0000000000
      7145        65  SAPE      P              24.1523475175       25.8605830904       19.0002055782  MEMB      65              0.0000000000
      7146        65  SAPE      O13            23.1272477401       26.5541738151       18.1943164201  MEMB      65              0.0000000000
      7147        65  SAPE      O14            25.5047633138       26.4349172508       19.1341046620  MEMB      65              0.0000000000
      7148        65  SAPE      O12            23.5254045200       25.6254349411       20.4464585715  MEMB      65              0.0000000000
      7149        65  SAPE      O11            24.2713747291       24.3782414476       18.5037924606  MEMB      65              0.0000000000
      7150        65  SAPE      C1             25.0509783617       23.4598908132       19.2842726536  MEMB      65              0.0000000000
      7151        65  SAPE      HA             26.1029414877       23.8169335612       19.3519208594  MEMB      65              0.0000000000
      7152        65  SAPE      HB             24.6503960911       23.3677140320       20.3200212718  MEMB      65              0.0000000000
      7153        65  SAPE      C2             25.0968267321       22.0198597740       18.6767611910  MEMB      65              0.0000000000
      7154        65  SAPE      HS             25.7279252068       21.3981118627       19.3514727495  MEMB      65              0.0000000000
      7155        65  SAPE      O21            25.6195319779       21.9691102561       17.3292889305  MEMB      65              0.0000000000
      7156        65  SAPE      C21            26.2531181857       22.9909573852       16.7937114811  MEMB      65              0.0000000000
      7157        65  SAPE      O22            27.2957344480       23.4773079365       17.2047680383  MEMB      65              0.0000000000
      7158        65  SAPE      C22            25.5593036390       23.4044254578       15.4750825252  MEMB      65              0.0000000000
      7159        65  SAPE      H2R            25.7341488060       22.6216093111       14.7101687819  MEMB      65              0.0000000000
      7160        65  SAPE      H2S            24.4920973335       23.4010546424       15.6973699687  MEMB      65              0.0000000000
      7161        65  SAPE      C3             23.6938404881       21.3244189192       18.6696582453  MEMB      65              0.0000000000
      7162        65  SAPE      HX             23.4037311602       21.0987392532       19.7159863103  MEMB      65              0.0000000000
      7163        65  SAPE      HY             23.7415315042       20.3348439809       18.1527433640  MEMB      65              0.0000000000
      7164        65  SAPE      O31            22.6654212918       22.1658872134       18.1240404305  MEMB      65              0.0000000000
      7165        65  SAPE      C31            22.5917062659       22.1828110501       16.8136616464  MEMB      65              0.0000000000
      7166        65  SAPE      O32            23.3061624966       21.5629533086       16.0404827981  MEMB      65              0.0000000000
      7167        65  SAPE      C32            21.3459495464       22.9934212126       16.4004089947  MEMB      65              0.0000000000
      7168        65  SAPE      H2X            20.6857983563       23.0350140509       17.2976308025  MEMB      65              0.0000000000
      7169        65  SAPE      H2Y            20.8338888587       22.3609585134       15.6639634796  MEMB      65              0.0000000000
      7170        65  SAPE      C23            25.8545902146       24.8472441124       14.9872284157  MEMB      65              0.0000000000
      7171        65  SAPE      H3R            26.7465833127       25.2145170404       15.5435217478  MEMB      65              0.0000000000
      7172        65  SAPE      H3S            25.0157476094       25.5115111961       15.2922799940  MEMB      65              0.0000000000
      7173        65  SAPE      C24            26.1775645737       24.9751814307       13.4759605025  MEMB      65              0.0000000000
      7174        65  SAPE      H4R            26.6936031518       24.0351543615       13.1880247261  MEMB      65              0.0000000000
      7175        65  SAPE      H4S            26.9382224749       25.7865428033       13.4371591481  MEMB      65              0.0000000000
      7176        65  SAPE      C25            25.1649271794       25.3434631647       12.4153745465  MEMB      65              0.0000000000
      7177        65  SAPE      H5R            24.7573453078       26.3659968735       12.4850416409  MEMB      65              0.0000000000
      7178        65  SAPE      C26            24.7763594081       24.5785487899       11.3738655304  MEMB      65              0.0000000000
      7179        65  SAPE      H6R            24.0756367810       25.0204993564       10.6446038027  MEMB      65              0.0000000000
      7180        65  SAPE      C27            25.2468968200       23.1810687576       11.0300366941  MEMB      65              0.0000000000
      7181        65  SAPE      H7R            25.5318979933       22.6063672412       11.9394292746  MEMB      65              0.0000000000
      7182        65  SAPE      H7S            26.1760066584       23.2500001740       10.4239570003  MEMB      65              0.0000000000
      7183        65  SAPE      C28            24.1772463257       22.4379547970       10.2564268870  MEMB      65              0.0000000000
      7184        65  SAPE      H8R            23.5151598354       21.8082136216       10.8619770309  MEMB      65              0.0000000000
      7185        65  SAPE      C29            24.0919103449       22.3538011395        8.9150606910  MEMB      65              0.0000000000
      7186        65  SAPE      H9R            23.3071256026       21.7360598643        8.4486323870  MEMB      65              0.0000000000
      7187        65  SAPE      C210           25.0920583991       23.0093608199        8.0065492438  MEMB      65              0.0000000000
      7188        65  SAPE      H10R           25.8629344041       22.2291505122        7.8836925304  MEMB      65              0.0000000000
      7189        65  SAPE      H10S           25.5823903403       23.8623095461        8.5252653727  MEMB      65              0.0000000000
      7190        65  SAPE      C211           24.7315860831       23.4218715520        6.6082093289  MEMB      65              0.0000000000
      7191        65  SAPE      H11R           23.8957241825       22.8809306333        6.1432014398  MEMB      65              0.0000000000
      7192        65  SAPE      C212           25.3960252503       24.3541197070        5.8944201077  MEMB      65              0.0000000000
      7193        65  SAPE      H12R           25.0679525362       24.5688537768        4.8651599345  MEMB      65              0.0000000000
      7194        65  SAPE      C213           26.5996702158       25.1515743332        6.3489153756  MEMB      65              0.0000000000
      7195        65  SAPE      H13R           27.0067430399       24.8016940449        7.3223111977  MEMB      65              0.0000000000
      7196        65  SAPE      H13S           26.2499180451       26.1834573543        6.5380996165  MEMB      65              0.0000000000
      7197        65  SAPE      C214           27.7233256676       25.2077430063        5.3467924682  MEMB      65              0.0000000000
      7198        65  SAPE      H14R           28.5539105209       24.5062865023        5.5227534447  MEMB      65              0.0000000000
      7199        65  SAPE      C215           27.7943217970       26.0696284653        4.3204381964  MEMB      65              0.0000000000
      7200        65  SAPE      H15R           28.6595963257       26.0362334742        3.6407992484  MEMB      65              0.0000000000
      7201        65  SAPE      C216           26.7552338911       27.1153405219        4.0134553005  MEMB      65              0.0000000000
      7202        65  SAPE      H16R           27.0673190663       28.0630923127        4.4809288013  MEMB      65              0.0000000000
      7203        65  SAPE      H16S           25.7710710159       26.8938185131        4.4851090896  MEMB      65              0.0000000000
      7204        65  SAPE      C217           26.5218005787       27.3072881296        2.5049607306  MEMB      65              0.0000000000
      7205        65  SAPE      H17R           27.4799229965       27.3271468019        1.9389686136  MEMB      65              0.0000000000
      7206        65  SAPE      H17S           26.0372680594       28.2973498043        2.3539594434  MEMB      65              0.0000000000
      7207        65  SAPE      C218           25.6041246899       26.2010456468        1.9683310937  MEMB      65              0.0000000000
      7208        65  SAPE      H18R           24.8936837974       25.9197848716        2.7800646503  MEMB      65              0.0000000000
      7209        65  SAPE      H18S           26.2162026700       25.3007975288        1.7434422307  MEMB      65              0.0000000000
      7210        65  SAPE      C219           24.7560287303       26.5934398482        0.7527675989  MEMB      65              0.0000000000
      7211        65  SAPE      H19R           24.2796330582       25.6627206298        0.3708365386  MEMB      65              0.0000000000
      7212        65  SAPE      H19S           25.4066830451       26.9806971311       -0.0609301179  MEMB      65              0.0000000000
      7213        65  SAPE      C220           23.6497919886       27.6046521716        1.0746853546  MEMB      65              0.0000000000
      7214        65  SAPE      H20R           24.0730923145       28.6251954335        1.1830279409  MEMB      65              0.0000000000
      7215        65  SAPE      H20S           23.1394079046       27.3372701642        2.0248248630  MEMB      65              0.0000000000
      7216        65  SAPE      H20T           22.8900805921       27.6222062300        0.2636880819  MEMB      65              0.0000000000
      7217        65  SAPE      C33            21.4782291037       24.4481966707       15.8487097374  MEMB      65              0.0000000000
      7218        65  SAPE      H3X            21.9696780821       25.0638841463       16.6346884022  MEMB      65              0.0000000000
      7219        65  SAPE      H3Y            20.4400551830       24.8371670512       15.7313568325  MEMB      65              0.0000000000
      7220        65  SAPE      C34            22.2235944336       24.7223062997       14.5207388298  MEMB      65              0.0000000000
      7221        65  SAPE      H4X            23.2528804312       24.3479531760       14.5916897775  MEMB      65              0.0000000000
      7222        65  SAPE      H4Y            22.3014332853       25.8268703931       14.3949364215  MEMB      65              0.0000000000
      7223        65  SAPE      C35            21.6441696158       24.1525585858       13.2216034830  MEMB      65              0.0000000000
      7224        65  SAPE      H5X            21.4282616055       23.0804332271       13.3451905150  MEMB      65              0.0000000000
      7225        65  SAPE      H5Y            22.4192886566       24.2257270577       12.4277537058  MEMB      65              0.0000000000
      7226        65  SAPE      C36            20.4376129788       24.9381923048       12.7176524722  MEMB      65              0.0000000000
      7227        65  SAPE      H6X            20.7867385996       25.9382208580       12.3731525617  MEMB      65              0.0000000000
      7228        65  SAPE      H6Y            19.7741233416       25.1096256085       13.5875364562  MEMB      65              0.0000000000
      7229        65  SAPE      C37            19.6763410254       24.2480424992       11.5737805801  MEMB      65              0.0000000000
      7230        65  SAPE      H7X            18.9461114985       24.9646655226       11.1502290213  MEMB      65              0.0000000000
      7231        65  SAPE      H7Y            19.0779638290       23.4081409122       11.9674609843  MEMB      65              0.0000000000
      7232        65  SAPE      C38            20.5524549054       23.7320975015       10.4245969649  MEMB      65              0.0000000000
      7233        65  SAPE      H8X            19.9404084292       23.0415719275        9.8009259983  MEMB      65              0.0000000000
      7234        65  SAPE      H8Y            21.4055356474       23.1349631227       10.8124202810  MEMB      65              0.0000000000
      7235        65  SAPE      C39            21.0464644247       24.8985619756        9.5655822765  MEMB      65              0.0000000000
      7236        65  SAPE      H9X            22.0764306030       25.1825436470        9.8716900809  MEMB      65              0.0000000000
      7237        65  SAPE      H9Y            20.3945501932       25.7798232833        9.7743824505  MEMB      65              0.0000000000
      7238        65  SAPE      C310           20.9800052919       24.6629817386        8.0515872286  MEMB      65              0.0000000000
      7239        65  SAPE      H10X           19.9271277570       24.4523730052        7.7575302568  MEMB      65              0.0000000000
      7240        65  SAPE      H10Y           21.6029758634       23.7879352410        7.7631730559  MEMB      65              0.0000000000
      7241        65  SAPE      C311           21.4763393538       25.9208373657        7.3280521801  MEMB      65              0.0000000000
      7242        65  SAPE      H11X           22.5798580238       25.9451876102        7.4353030324  MEMB      65              0.0000000000
      7243        65  SAPE      H11Y           21.0508904200       26.8021010040        7.8476316260  MEMB      65              0.0000000000
      7244        65  SAPE      C312           21.1392400187       26.0115340745        5.8408610794  MEMB      65              0.0000000000
      7245        65  SAPE      H12X           21.1722226854       27.0734425763        5.5067018548  MEMB      65              0.0000000000
      7246        65  SAPE      H12Y           20.1147462268       25.6211847640        5.6573930628  MEMB      65              0.0000000000
      7247        65  SAPE      C313           22.1720044407       25.2382295892        5.0319816727  MEMB      65              0.0000000000
      7248        65  SAPE      H13X           22.3213785571       24.2589073969        5.5373467647  MEMB      65              0.0000000000
      7249        65  SAPE      H13Y           23.1455829901       25.7798239054        5.0450104713  MEMB      65              0.0000000000
      7250        65  SAPE      C314           21.7512165751       24.9634395000        3.5958226544  MEMB      65              0.0000000000
      7251        65  SAPE      H14X           21.7971195755       25.8933926100        2.9911775237  MEMB      65              0.0000000000
      7252        65  SAPE      H14Y           20.6965089796       24.6032920514        3.5927369129  MEMB      65              0.0000000000
      7253        65  SAPE      C315           22.6340332132       23.8715882256        2.9921162957  MEMB      65              0.0000000000
      7254        65  SAPE      H15X           22.4717803926       22.9535143833        3.6034118089  MEMB      65              0.0000000000
      7255        65  SAPE      H15Y           23.7098181209       24.1307862514        3.0818560257  MEMB      65              0.0000000000
      7256        65  SAPE      C316           22.2785525931       23.5874437772        1.5349030063  MEMB      65              0.0000000000
      7257        65  SAPE      H16X           22.8165220116       24.2739703141        0.8501434333  MEMB      65              0.0000000000
      7258        65  SAPE      H16Y           21.1892875283       23.7762533702        1.3991607637  MEMB      65              0.0000000000
      7259        65  SAPE      C317           22.5459732328       22.1366932048        1.1526168081  MEMB      65              0.0000000000
      7260        65  SAPE      H17X           22.3339521550       21.5112628099        2.0492927909  MEMB      65              0.0000000000
      7261        65  SAPE      H17Y           23.6199870275       21.9935841454        0.9035846345  MEMB      65              0.0000000000
      7262        65  SAPE      C318           21.6388423120       21.6678097300        0.0167462181  MEMB      65              0.0000000000
      7263        65  SAPE      H18X           21.8700988067       20.6209204005       -0.2554864407  MEMB      65              0.0000000000
      7264        65  SAPE      H18Y           21.7406627536       22.3011149434       -0.8858102414  MEMB      65              0.0000000000
      7265        65  SAPE      H18Z           20.5797954174       21.7038335883        0.3477050092  MEMB      65              0.0000000000
      7266        66  POPC      N              30.6179374487       19.6119414223       19.9409416320  MEMB      66              0.0000000000
      7267        66  POPC      C12            29.9112237230       20.5654053933       18.9879862328  MEMB      66              0.0000000000
      7268        66  POPC      H12A           30.3038969119       20.4174606384       17.9840611306  MEMB      66              0.0000000000
      7269        66  POPC      H12B           30.1418637908       21.5873724379       19.2615923935  MEMB      66              0.0000000000
      7270        66  POPC      C13            30.5114405954       18.2201864593       19.4057002497  MEMB      66              0.0000000000
      7271        66  POPC      H13A           30.8664789626       17.4892704389       20.1110137032  MEMB      66              0.0000000000
      7272        66  POPC      H13B           29.4602760077       18.0089975860       19.1920462772  MEMB      66              0.0000000000
      7273        66  POPC      H13C           31.0407152401       18.1036972265       18.4700121777  MEMB      66              0.0000000000
      7274        66  POPC      C14            32.0525132422       19.9741964498       20.0769409170  MEMB      66              0.0000000000
      7275        66  POPC      H14A           32.5870976555       19.2184109096       20.6414137524  MEMB      66              0.0000000000
      7276        66  POPC      H14B           32.4996067711       20.0501460022       19.0884330728  MEMB      66              0.0000000000
      7277        66  POPC      H14C           32.1546346915       20.9337590241       20.5686765823  MEMB      66              0.0000000000
      7278        66  POPC      C15            29.9469631498       19.6638170835       21.2885988836  MEMB      66              0.0000000000
      7279        66  POPC      H15A           28.8697631066       19.5485107977       21.1599824570  MEMB      66              0.0000000000
      7280        66  POPC      H15B           30.1266567880       20.6102723830       21.7848670910  MEMB      66              0.0000000000
      7281        66  POPC      H15C           30.2592659535       18.8502065937       21.9448542874  MEMB      66              0.0000000000
      7282        66  POPC      C11            28.3726452465       20.4148854483       18.8965057556  MEMB      66              0.0000000000
      7283        66  POPC      H11A           27.9873907115       21.1445830770       18.1494190413  MEMB      66              0.0000000000
      7284        66  POPC      H11B           27.9106155357       20.6584009276       19.8792959644  MEMB      66              0.0000000000
      7285        66  POPC      P              26.6521052639       18.4015075564       18.6870706860  MEMB      66              0.0000000000
      7286        66  POPC      O13            25.9371755903       19.0648957715       19.7946377923  MEMB      66              0.0000000000
      7287        66  POPC      O14            26.9217801058       16.9603869339       18.8660269166  MEMB      66              0.0000000000
      7288        66  POPC      O12            28.0520144694       19.0961915836       18.4987727205  MEMB      66              0.0000000000
      7289        66  POPC      O11            25.8910659231       18.7141977736       17.3466516345  MEMB      66              0.0000000000
      7290        66  POPC      C1             26.2269086440       18.1650036193       16.0755888785  MEMB      66              0.0000000000
      7291        66  POPC      HA             25.3763979922       18.3190526443       15.3750544970  MEMB      66              0.0000000000
      7292        66  POPC      HB             26.3558554934       17.0633646280       16.1653156438  MEMB      66              0.0000000000
      7293        66  POPC      C2             27.5246819724       18.7469599505       15.4248933425  MEMB      66              0.0000000000
      7294        66  POPC      HS             28.3086245047       18.7280154590       16.2150387559  MEMB      66              0.0000000000
      7295        66  POPC      O21            27.3362779950       20.0993201959       14.9067849406  MEMB      66              0.0000000000
      7296        66  POPC      C21            28.5228848832       20.6884147217       14.6569305623  MEMB      66              0.0000000000
      7297        66  POPC      O22            29.6007774578       20.2081398085       14.9426246556  MEMB      66              0.0000000000
      7298        66  POPC      C22            28.3695432965       22.0454529457       13.9386311052  MEMB      66              0.0000000000
      7299        66  POPC      H2R            27.7034898796       22.6710862019       14.5376687677  MEMB      66              0.0000000000
      7300        66  POPC      H2S            27.9395993188       21.9060509329       12.9270735537  MEMB      66              0.0000000000
      7301        66  POPC      C3             27.9715680562       17.7727709195       14.2882436191  MEMB      66              0.0000000000
      7302        66  POPC      HX             28.0554693201       16.7669907916       14.7612127356  MEMB      66              0.0000000000
      7303        66  POPC      HY             28.9894770391       18.0133630693       13.9071871150  MEMB      66              0.0000000000
      7304        66  POPC      O31            26.9650928753       17.7267452603       13.2496931800  MEMB      66              0.0000000000
      7305        66  POPC      C31            27.0586060010       18.7208017235       12.3718468549  MEMB      66              0.0000000000
      7306        66  POPC      O32            28.0509442454       19.3919513855       12.1563631291  MEMB      66              0.0000000000
      7307        66  POPC      C32            25.7419073721       18.9503564471       11.6504228423  MEMB      66              0.0000000000
      7308        66  POPC      H2X            25.3036108299       19.8575228186       12.1220904203  MEMB      66              0.0000000000
      7309        66  POPC      H2Y            25.0690036830       18.0886801100       11.8268272815  MEMB      66              0.0000000000
      7310        66  POPC      C23            29.6904783891       22.8447989520       13.9032171132  MEMB      66              0.0000000000
      7311        66  POPC      H3R            30.4269172534       22.3416380945       13.2411971599  MEMB      66              0.0000000000
      7312        66  POPC      H3S            30.0924582930       22.8246895947       14.9452337512  MEMB      66              0.0000000000
      7313        66  POPC      C24            29.5514306330       24.3373931996       13.5454875523  MEMB      66              0.0000000000
      7314        66  POPC      H4R            30.4320799632       24.8859484038       13.9423585143  MEMB      66              0.0000000000
      7315        66  POPC      H4S            28.6816153622       24.7241743781       14.1171969899  MEMB      66              0.0000000000
      7316        66  POPC      C25            29.3833000869       24.6728710518       12.0457578669  MEMB      66              0.0000000000
      7317        66  POPC      H5R            29.9695175960       25.5807220781       11.7792929832  MEMB      66              0.0000000000
      7318        66  POPC      H5S            28.3115239946       24.9280770820       11.8928340990  MEMB      66              0.0000000000
      7319        66  POPC      C26            29.6970134608       23.5401609067       11.0506579540  MEMB      66              0.0000000000
      7320        66  POPC      H6R            29.2591941837       22.5950714522       11.4379358526  MEMB      66              0.0000000000
      7321        66  POPC      H6S            30.7866397479       23.3639619462       10.9358706810  MEMB      66              0.0000000000
      7322        66  POPC      C27            29.0150412904       23.7495933134        9.6950581450  MEMB      66              0.0000000000
      7323        66  POPC      H7R            29.6507598636       24.3340414367        8.9962243961  MEMB      66              0.0000000000
      7324        66  POPC      H7S            28.0925092688       24.3543827870        9.8667659935  MEMB      66              0.0000000000
      7325        66  POPC      C28            28.5212916673       22.4289753093        9.0759568986  MEMB      66              0.0000000000
      7326        66  POPC      H8R            27.6262864356       22.7102791607        8.5055847133  MEMB      66              0.0000000000
      7327        66  POPC      H8S            28.1717449810       21.7224281588        9.8600517525  MEMB      66              0.0000000000
      7328        66  POPC      C29            29.5101508333       21.7654952095        8.1691901147  MEMB      66              0.0000000000
      7329        66  POPC      H91            30.4148515932       21.4049605644        8.6706146834  MEMB      66              0.0000000000
      7330        66  POPC      C210           29.3166567637       21.4940309128        6.8684665532  MEMB      66              0.0000000000
      7331        66  POPC      H101           30.1704958176       21.1170711810        6.2985791692  MEMB      66              0.0000000000
      7332        66  POPC      C211           28.0738306161       21.7996564148        6.0673833536  MEMB      66              0.0000000000
      7333        66  POPC      H11R           28.3229922037       22.0887486671        5.0291179148  MEMB      66              0.0000000000
      7334        66  POPC      H11S           27.5833501081       22.6991874200        6.4802883550  MEMB      66              0.0000000000
      7335        66  POPC      C212           27.0121108481       20.6666490735        6.0731653796  MEMB      66              0.0000000000
      7336        66  POPC      H12R           26.0420773127       21.1051561787        5.7634999572  MEMB      66              0.0000000000
      7337        66  POPC      H12S           26.9045043783       20.2854945829        7.1127786497  MEMB      66              0.0000000000
      7338        66  POPC      C213           27.3331957099       19.5053556217        5.1242516657  MEMB      66              0.0000000000
      7339        66  POPC      H13R           28.1842934789       18.9733884526        5.5768322987  MEMB      66              0.0000000000
      7340        66  POPC      H13S           27.7136901878       19.9390664320        4.1933292218  MEMB      66              0.0000000000
      7341        66  POPC      C214           26.2168025221       18.4896693364        4.7648521020  MEMB      66              0.0000000000
      7342        66  POPC      H14R           25.7362600691       18.0671291093        5.6712470528  MEMB      66              0.0000000000
      7343        66  POPC      H14S           26.7180309102       17.6413300786        4.2394339683  MEMB      66              0.0000000000
      7344        66  POPC      C215           25.1485012592       19.0610517419        3.8215632661  MEMB      66              0.0000000000
      7345        66  POPC      H15R           25.6211101232       19.9107762930        3.2837167519  MEMB      66              0.0000000000
      7346        66  POPC      H15S           24.3013857818       19.4727428116        4.4119732767  MEMB      66              0.0000000000
      7347        66  POPC      C216           24.6090607136       18.0899497198        2.7554026746  MEMB      66              0.0000000000
      7348        66  POPC      H16R           23.8904554634       17.3823147999        3.2177165099  MEMB      66              0.0000000000
      7349        66  POPC      H16S           25.4289706239       17.4766285423        2.3198255716  MEMB      66              0.0000000000
      7350        66  POPC      C217           23.9220598842       18.8490605691        1.6095884960  MEMB      66              0.0000000000
      7351        66  POPC      H17R           23.2391331527       19.6093578251        2.0348728439  MEMB      66              0.0000000000
      7352        66  POPC      H17S           23.3011277065       18.1345066360        1.0238191409  MEMB      66              0.0000000000
      7353        66  POPC      C218           24.9205165833       19.5294588501        0.6774926723  MEMB      66              0.0000000000
      7354        66  POPC      H18R           25.4076246348       20.4045665759        1.1530868180  MEMB      66              0.0000000000
      7355        66  POPC      H18S           24.4587102283       19.8707828060       -0.2705611797  MEMB      66              0.0000000000
      7356        66  POPC      H18T           25.6959144784       18.7772213573        0.4396788909  MEMB      66              0.0000000000
      7357        66  POPC      C33            25.9538542594       19.2509610724       10.1456688894  MEMB      66              0.0000000000
      7358        66  POPC      H3X            26.9914150786       19.5853950626        9.9221019823  MEMB      66              0.0000000000
      7359        66  POPC      H3Y            25.2853814604       20.0832167775        9.8518904777  MEMB      66              0.0000000000
      7360        66  POPC      C34            25.6030300965       18.0818217501        9.2325212088  MEMB      66              0.0000000000
      7361        66  POPC      H4X            25.6343093665       18.3964621229        8.1660352189  MEMB      66              0.0000000000
      7362        66  POPC      H4Y            24.5568298787       17.7694442017        9.4457108779  MEMB      66              0.0000000000
      7363        66  POPC      C35            26.5126696806       16.8786166578        9.4545442244  MEMB      66              0.0000000000
      7364        66  POPC      H5X            25.9554067560       16.0289695776        9.0452788523  MEMB      66              0.0000000000
      7365        66  POPC      H5Y            26.6338718590       16.6857277265       10.5389784739  MEMB      66              0.0000000000
      7366        66  POPC      C36            27.8957083928       16.9536387561        8.7959337323  MEMB      66              0.0000000000
      7367        66  POPC      H6X            28.5155258481       16.0941784510        9.1300882825  MEMB      66              0.0000000000
      7368        66  POPC      H6Y            28.3961893326       17.8977138579        9.1093034557  MEMB      66              0.0000000000
      7369        66  POPC      C37            27.8590398033       16.9320633925        7.2723505125  MEMB      66              0.0000000000
      7370        66  POPC      H7X            27.4665169909       17.9232769316        7.0006955903  MEMB      66              0.0000000000
      7371        66  POPC      H7Y            27.1222649598       16.1916746470        6.8869079838  MEMB      66              0.0000000000
      7372        66  POPC      C38            29.2354021326       16.6824699891        6.6245175542  MEMB      66              0.0000000000
      7373        66  POPC      H8X            29.0722272594       16.5831472591        5.5285246800  MEMB      66              0.0000000000
      7374        66  POPC      H8Y            29.6619540503       15.7252086641        6.9703084729  MEMB      66              0.0000000000
      7375        66  POPC      C39            30.3481730829       17.6976910596        6.9498936553  MEMB      66              0.0000000000
      7376        66  POPC      H9X            30.8121194616       17.4055373202        7.9121520976  MEMB      66              0.0000000000
      7377        66  POPC      H9Y            29.8968661428       18.7005085170        7.1139893842  MEMB      66              0.0000000000
      7378        66  POPC      C310           31.3961637801       17.8097726969        5.8155672225  MEMB      66              0.0000000000
      7379        66  POPC      H10X           31.6569548075       16.8001867285        5.4287846707  MEMB      66              0.0000000000
      7380        66  POPC      H10Y           32.3178462035       18.3025821473        6.1947772283  MEMB      66              0.0000000000
      7381        66  POPC      C311           30.7189804149       18.6713784265        4.7543612507  MEMB      66              0.0000000000
      7382        66  POPC      H11X           30.5838442506       19.6888703746        5.1514474127  MEMB      66              0.0000000000
      7383        66  POPC      H11Y           29.7172724138       18.2093227295        4.6724477785  MEMB      66              0.0000000000
      7384        66  POPC      C312           31.1089218165       18.7664777235        3.2880357404  MEMB      66              0.0000000000
      7385        66  POPC      H12X           31.3109884333       17.7551818033        2.8720503503  MEMB      66              0.0000000000
      7386        66  POPC      H12Y           31.9957343493       19.4129507368        3.1171144696  MEMB      66              0.0000000000
      7387        66  POPC      C313           29.8507187265       19.3572901698        2.6102050324  MEMB      66              0.0000000000
      7388        66  POPC      H13X           28.9407349302       18.8951337257        3.0403911523  MEMB      66              0.0000000000
      7389        66  POPC      H13Y           29.7783175512       19.0353753392        1.5578009386  MEMB      66              0.0000000000
      7390        66  POPC      C314           29.6812801511       20.8865524487        2.7852905791  MEMB      66              0.0000000000
      7391        66  POPC      H14X           30.5705114826       21.4159098781        2.3999075030  MEMB      66              0.0000000000
      7392        66  POPC      H14Y           29.6480652101       21.1348679818        3.8615961456  MEMB      66              0.0000000000
      7393        66  POPC      C315           28.3965465911       21.3615940658        2.0787155195  MEMB      66              0.0000000000
      7394        66  POPC      H15X           27.5554182582       20.6820296146        2.3314986730  MEMB      66              0.0000000000
      7395        66  POPC      H15Y           28.5586330959       21.2123741809        1.0064272770  MEMB      66              0.0000000000
      7396        66  POPC      C316           27.9378578151       22.8098864324        2.2605712140  MEMB      66              0.0000000000
      7397        66  POPC      H16X           27.4428795737       22.9477166555        3.2443440447  MEMB      66              0.0000000000
      7398        66  POPC      H16Y           27.1907087726       23.0519549386        1.4692847412  MEMB      66              0.0000000000
      7399        66  POPC      H16Z           28.7862650305       23.5194995351        2.1677362651  MEMB      66              0.0000000000
      7400        67  SOPE      N             -25.8455172010      -27.6973975219       22.6023397724  MEMB      67              0.0000000000
      7401        67  SOPE      HN1           -26.6408472409      -27.0515386824       22.4142813028  MEMB      67              0.0000000000
      7402        67  SOPE      HN2           -25.7937217297      -28.4945790998       21.9350934919  MEMB      67              0.0000000000
      7403        67  SOPE      HN3           -25.9810169385      -28.1332169109       23.5444146255  MEMB      67              0.0000000000
      7404        67  SOPE      C12           -24.5317010631      -26.9716709634       22.5495026080  MEMB      67              0.0000000000
      7405        67  SOPE      H12A          -23.7313507389      -27.7258602257       22.6880812314  MEMB      67              0.0000000000
      7406        67  SOPE      H12B          -24.4845118149      -26.2536698586       23.3915503889  MEMB      67              0.0000000000
      7407        67  SOPE      C11           -24.3578667400      -26.2798014840       21.1939821047  MEMB      67              0.0000000000
      7408        67  SOPE      H11A          -24.9703120519      -25.3494875096       21.1962546353  MEMB      67              0.0000000000
      7409        67  SOPE      H11B          -24.7432736857      -26.9269113976       20.3659662490  MEMB      67              0.0000000000
      7410        67  SOPE      P             -22.0443666941      -26.9750258348       20.2259435746  MEMB      67              0.0000000000
      7411        67  SOPE      O13           -22.2195597539      -28.3126828107       20.8461258287  MEMB      67              0.0000000000
      7412        67  SOPE      O14           -20.6534687851      -26.4454932495       20.1110238859  MEMB      67              0.0000000000
      7413        67  SOPE      O12           -22.9810145797      -25.9400235560       21.0040154760  MEMB      67              0.0000000000
      7414        67  SOPE      O11           -22.7509393166      -27.0049280391       18.8233468469  MEMB      67              0.0000000000
      7415        67  SOPE      C1            -22.5669901290      -25.9752240773       17.8489426465  MEMB      67              0.0000000000
      7416        67  SOPE      HA            -22.3233658827      -26.4577193505       16.8762294520  MEMB      67              0.0000000000
      7417        67  SOPE      HB            -21.7173743626      -25.2930548284       18.0826100101  MEMB      67              0.0000000000
      7418        67  SOPE      C2            -23.8362974240      -25.1038007392       17.6328867747  MEMB      67              0.0000000000
      7419        67  SOPE      HS            -24.1066757276      -24.6449771631       18.6119463276  MEMB      67              0.0000000000
      7420        67  SOPE      O21           -24.9047670294      -25.9551232904       17.1915202531  MEMB      67              0.0000000000
      7421        67  SOPE      C21           -26.0937562931      -25.4166536839       17.0461474357  MEMB      67              0.0000000000
      7422        67  SOPE      O22           -26.4597151917      -24.3465671546       17.5030355677  MEMB      67              0.0000000000
      7423        67  SOPE      C22           -26.9831004926      -26.4440405471       16.3600001017  MEMB      67              0.0000000000
      7424        67  SOPE      H2R           -27.6598768521      -26.9102105489       17.0981533199  MEMB      67              0.0000000000
      7425        67  SOPE      H2S           -26.3064172751      -27.2364086991       15.9748133908  MEMB      67              0.0000000000
      7426        67  SOPE      C3            -23.5260231704      -23.9635391037       16.6018334414  MEMB      67              0.0000000000
      7427        67  SOPE      HX            -22.9298262452      -23.2155032920       17.1736880920  MEMB      67              0.0000000000
      7428        67  SOPE      HY            -24.4547175598      -23.4373792991       16.2862023514  MEMB      67              0.0000000000
      7429        67  SOPE      O31           -22.7290787009      -24.3936127548       15.4676359595  MEMB      67              0.0000000000
      7430        67  SOPE      C31           -23.3996776820      -24.9096466213       14.4392312949  MEMB      67              0.0000000000
      7431        67  SOPE      O32           -24.6030754049      -25.0694378315       14.3994797557  MEMB      67              0.0000000000
      7432        67  SOPE      C32           -22.4744501516      -25.1309698871       13.2380927017  MEMB      67              0.0000000000
      7433        67  SOPE      H2X           -21.4164394085      -25.1770080314       13.5630373312  MEMB      67              0.0000000000
      7434        67  SOPE      H2Y           -22.6054503631      -24.2288996714       12.6000133312  MEMB      67              0.0000000000
      7435        67  SOPE      C23           -27.7896660714      -25.8342476040       15.1996097549  MEMB      67              0.0000000000
      7436        67  SOPE      H3R           -27.1023581712      -25.2978025988       14.5042493131  MEMB      67              0.0000000000
      7437        67  SOPE      H3S           -28.5124926045      -25.0822016291       15.5900135055  MEMB      67              0.0000000000
      7438        67  SOPE      C24           -28.5386230281      -26.9208771403       14.4195177125  MEMB      67              0.0000000000
      7439        67  SOPE      H4R           -29.2118238545      -27.4730455072       15.1111024766  MEMB      67              0.0000000000
      7440        67  SOPE      H4S           -29.1708159524      -26.4461757856       13.6345026139  MEMB      67              0.0000000000
      7441        67  SOPE      C25           -27.6030022530      -27.9239251801       13.7328933766  MEMB      67              0.0000000000
      7442        67  SOPE      H5R           -26.8923335855      -28.3904781274       14.4455113983  MEMB      67              0.0000000000
      7443        67  SOPE      H5S           -28.2166284611      -28.7621111082       13.3352365826  MEMB      67              0.0000000000
      7444        67  SOPE      C26           -26.8088563058      -27.2931723765       12.5851282029  MEMB      67              0.0000000000
      7445        67  SOPE      H6R           -26.8990248640      -26.1870231966       12.5793119341  MEMB      67              0.0000000000
      7446        67  SOPE      H6S           -25.7315379214      -27.5273246763       12.7150538711  MEMB      67              0.0000000000
      7447        67  SOPE      C27           -27.2793367955      -27.8609162361       11.2562789738  MEMB      67              0.0000000000
      7448        67  SOPE      H7R           -27.2322261608      -28.9699322856       11.3546865076  MEMB      67              0.0000000000
      7449        67  SOPE      H7S           -28.3332342137      -27.5631616481       11.0682644476  MEMB      67              0.0000000000
      7450        67  SOPE      C28           -26.3827623336      -27.5060792735       10.0823791829  MEMB      67              0.0000000000
      7451        67  SOPE      H8R           -25.3358069446      -27.6846680984       10.3941507531  MEMB      67              0.0000000000
      7452        67  SOPE      H8S           -26.6218385184      -28.2377255431        9.2747657682  MEMB      67              0.0000000000
      7453        67  SOPE      C29           -26.5362145280      -26.0887923324        9.6163445789  MEMB      67              0.0000000000
      7454        67  SOPE      H91           -26.8445284524      -25.3438117003       10.3638394070  MEMB      67              0.0000000000
      7455        67  SOPE      C210          -26.3225998938      -25.7199177664        8.3513535105  MEMB      67              0.0000000000
      7456        67  SOPE      H101          -26.4413762840      -24.6686024116        8.0506929377  MEMB      67              0.0000000000
      7457        67  SOPE      C211          -25.9075062365      -26.6616898472        7.2598202398  MEMB      67              0.0000000000
      7458        67  SOPE      H11R          -25.5125040385      -27.6300418868        7.6409556711  MEMB      67              0.0000000000
      7459        67  SOPE      H11S          -25.0896537018      -26.1769731180        6.6984735712  MEMB      67              0.0000000000
      7460        67  SOPE      C212          -27.0811592756      -26.9953318757        6.3338818467  MEMB      67              0.0000000000
      7461        67  SOPE      H12R          -27.8798003958      -27.4736572965        6.9455811988  MEMB      67              0.0000000000
      7462        67  SOPE      H12S          -26.7533068008      -27.7556802689        5.5901714740  MEMB      67              0.0000000000
      7463        67  SOPE      C213          -27.6274086976      -25.7468715942        5.6228561342  MEMB      67              0.0000000000
      7464        67  SOPE      H13R          -26.9212986211      -24.9047703272        5.8042888426  MEMB      67              0.0000000000
      7465        67  SOPE      H13S          -28.6091983887      -25.4696188418        6.0573997283  MEMB      67              0.0000000000
      7466        67  SOPE      C214          -27.7392043116      -25.8829223630        4.1027108177  MEMB      67              0.0000000000
      7467        67  SOPE      H14R          -28.3875832502      -26.7366500222        3.8130641312  MEMB      67              0.0000000000
      7468        67  SOPE      H14S          -26.7122678656      -26.0686305254        3.7483757273  MEMB      67              0.0000000000
      7469        67  SOPE      C215          -28.1697926579      -24.5835734949        3.4206744777  MEMB      67              0.0000000000
      7470        67  SOPE      H15R          -27.4011579628      -23.8221417025        3.6983831072  MEMB      67              0.0000000000
      7471        67  SOPE      H15S          -29.1491352301      -24.2527276335        3.8214251548  MEMB      67              0.0000000000
      7472        67  SOPE      C216          -28.2170866660      -24.6519123047        1.8845646224  MEMB      67              0.0000000000
      7473        67  SOPE      H16R          -27.2817923509      -25.1234845243        1.5062233307  MEMB      67              0.0000000000
      7474        67  SOPE      H16S          -28.2504708923      -23.5994455286        1.5157677089  MEMB      67              0.0000000000
      7475        67  SOPE      C217          -29.4365472402      -25.3746592196        1.2936068928  MEMB      67              0.0000000000
      7476        67  SOPE      H17R          -30.3524044127      -24.9037124758        1.7147559745  MEMB      67              0.0000000000
      7477        67  SOPE      H17S          -29.4170474799      -26.4396837552        1.6075694166  MEMB      67              0.0000000000
      7478        67  SOPE      C218          -29.5237854890      -25.3173393125       -0.2366729957  MEMB      67              0.0000000000
      7479        67  SOPE      H18R          -30.4642755268      -25.7913571185       -0.5949756166  MEMB      67              0.0000000000
      7480        67  SOPE      H18S          -28.6637280854      -25.8487506557       -0.6994696961  MEMB      67              0.0000000000
      7481        67  SOPE      H18T          -29.5135378168      -24.2612381383       -0.5851410119  MEMB      67              0.0000000000
      7482        67  SOPE      C33           -22.8651412115      -26.3381983577       12.3573552749  MEMB      67              0.0000000000
      7483        67  SOPE      H3X           -22.4591098293      -26.1526917502       11.3332925806  MEMB      67              0.0000000000
      7484        67  SOPE      H3Y           -23.9651430830      -26.4180631311       12.2248058667  MEMB      67              0.0000000000
      7485        67  SOPE      C34           -22.2755358432      -27.6839151447       12.8000031274  MEMB      67              0.0000000000
      7486        67  SOPE      H4X           -21.1979534651      -27.5901142651       13.0326476297  MEMB      67              0.0000000000
      7487        67  SOPE      H4Y           -22.3664527512      -28.3158956704       11.8919541160  MEMB      67              0.0000000000
      7488        67  SOPE      C35           -22.9922102118      -28.3656793109       13.9760527885  MEMB      67              0.0000000000
      7489        67  SOPE      H5X           -24.0792398524      -28.1422560854       13.9330463245  MEMB      67              0.0000000000
      7490        67  SOPE      H5Y           -22.6148441667      -27.9467990519       14.9356694877  MEMB      67              0.0000000000
      7491        67  SOPE      C36           -22.8174629737      -29.8967198006       14.0091920765  MEMB      67              0.0000000000
      7492        67  SOPE      H6X           -23.5390329208      -30.3309685226       14.7390396806  MEMB      67              0.0000000000
      7493        67  SOPE      H6Y           -21.7962074657      -30.1437555915       14.3821467082  MEMB      67              0.0000000000
      7494        67  SOPE      C37           -22.9848830707      -30.5979698987       12.6535155654  MEMB      67              0.0000000000
      7495        67  SOPE      H7X           -22.9265818796      -31.6773129921       12.8848378069  MEMB      67              0.0000000000
      7496        67  SOPE      H7Y           -22.1054903824      -30.3748368523       12.0128542643  MEMB      67              0.0000000000
      7497        67  SOPE      C38           -24.2869682238      -30.2818565588       11.8865800055  MEMB      67              0.0000000000
      7498        67  SOPE      H8X           -24.5749153743      -29.2208705008       12.0299412357  MEMB      67              0.0000000000
      7499        67  SOPE      H8Y           -25.1035207364      -30.9043705722       12.3175206864  MEMB      67              0.0000000000
      7500        67  SOPE      C39           -24.2151514972      -30.5077283703       10.3656144667  MEMB      67              0.0000000000
      7501        67  SOPE      H9X           -25.2437105377      -30.4419966955        9.9424419145  MEMB      67              0.0000000000
      7502        67  SOPE      H9Y           -23.8256649189      -31.5034398767       10.1141199757  MEMB      67              0.0000000000
      7503        67  SOPE      C310          -23.2893275232      -29.5752943862        9.5928460233  MEMB      67              0.0000000000
      7504        67  SOPE      H10X          -22.2493533910      -29.6166712739        9.9798601291  MEMB      67              0.0000000000
      7505        67  SOPE      H10Y          -23.6447870953      -28.5316659102        9.7099595503  MEMB      67              0.0000000000
      7506        67  SOPE      C311          -23.2820071598      -29.9497657714        8.1114709910  MEMB      67              0.0000000000
      7507        67  SOPE      H11X          -24.2979499777      -30.3082846809        7.8195913278  MEMB      67              0.0000000000
      7508        67  SOPE      H11Y          -22.5719718005      -30.7759420677        7.9001135778  MEMB      67              0.0000000000
      7509        67  SOPE      C312          -22.9154394181      -28.7422293538        7.2679675797  MEMB      67              0.0000000000
      7510        67  SOPE      H12X          -21.8292203414      -28.5287664858        7.3583280829  MEMB      67              0.0000000000
      7511        67  SOPE      H12Y          -23.4549293312      -27.8560210341        7.6693911593  MEMB      67              0.0000000000
      7512        67  SOPE      C313          -23.3151199914      -28.9257383835        5.8105125172  MEMB      67              0.0000000000
      7513        67  SOPE      H13X          -24.3284214708      -29.3859968440        5.7489047060  MEMB      67              0.0000000000
      7514        67  SOPE      H13Y          -22.6005521122      -29.6271594858        5.3232462463  MEMB      67              0.0000000000
      7515        67  SOPE      C314          -23.3393520961      -27.5793683456        5.0846979349  MEMB      67              0.0000000000
      7516        67  SOPE      H14X          -22.5649179545      -26.9138925219        5.5312209639  MEMB      67              0.0000000000
      7517        67  SOPE      H14Y          -24.3262880351      -27.1014404997        5.2197079398  MEMB      67              0.0000000000
      7518        67  SOPE      C315          -23.1200367592      -27.7245717492        3.5877010197  MEMB      67              0.0000000000
      7519        67  SOPE      H15X          -22.1242859132      -28.2053490173        3.4649870463  MEMB      67              0.0000000000
      7520        67  SOPE      H15Y          -23.0894372250      -26.7295101094        3.0841563186  MEMB      67              0.0000000000
      7521        67  SOPE      C316          -24.1921776195      -28.5827065948        2.9031347850  MEMB      67              0.0000000000
      7522        67  SOPE      H16X          -24.4271429857      -29.5062771632        3.4767540786  MEMB      67              0.0000000000
      7523        67  SOPE      H16Y          -23.7775723201      -28.8798154126        1.9186472967  MEMB      67              0.0000000000
      7524        67  SOPE      C317          -25.4680271363      -27.8096387600        2.6054105423  MEMB      67              0.0000000000
      7525        67  SOPE      H17X          -25.1739031104      -26.7372697254        2.4830112531  MEMB      67              0.0000000000
      7526        67  SOPE      H17Y          -26.1466033546      -27.9000613231        3.4826800026  MEMB      67              0.0000000000
      7527        67  SOPE      C318          -26.2056367865      -28.2337707211        1.3358161613  MEMB      67              0.0000000000
      7528        67  SOPE      H18X          -27.2150715529      -27.7663068105        1.3195423556  MEMB      67              0.0000000000
      7529        67  SOPE      H18Y          -26.3337792107      -29.3338586141        1.2731446229  MEMB      67              0.0000000000
      7530        67  SOPE      H18Z          -25.6249642595      -27.8991945431        0.4467163023  MEMB      67              0.0000000000
      7531        68  CHL1      C3            -29.0571540200      -18.6837618966       17.2434544226  MEMB      68              0.0000000000
      7532        68  CHL1      H3            -29.3761578742      -17.6745600839       16.8835632429  MEMB      68              0.0000000000
      7533        68  CHL1      O3            -29.1688739723      -18.7414884226       18.6537356985  MEMB      68              0.0000000000
      7534        68  CHL1      H3'           -29.4641821495      -19.6402630942       18.8294202717  MEMB      68              0.0000000000
      7535        68  CHL1      C4            -29.9493264741      -19.7807116294       16.6362741020  MEMB      68              0.0000000000
      7536        68  CHL1      H4A           -29.6056416197      -20.7697729314       17.0069203783  MEMB      68              0.0000000000
      7537        68  CHL1      H4B           -30.9925026969      -19.6482165021       17.0003904698  MEMB      68              0.0000000000
      7538        68  CHL1      C5            -29.8705290165      -19.7430809762       15.1275514200  MEMB      68              0.0000000000
      7539        68  CHL1      C6            -30.9595646560      -19.5153985613       14.3761432569  MEMB      68              0.0000000000
      7540        68  CHL1      H6            -31.9389502428      -19.3968231455       14.8626290634  MEMB      68              0.0000000000
      7541        68  CHL1      C7            -30.9433712710      -19.4167221632       12.8790845750  MEMB      68              0.0000000000
      7542        68  CHL1      H7A           -31.7424532279      -20.0369688574       12.4241353059  MEMB      68              0.0000000000
      7543        68  CHL1      H7B           -31.1279534429      -18.3566125940       12.5952370114  MEMB      68              0.0000000000
      7544        68  CHL1      C8            -29.6190842792      -19.8833971264       12.2345746202  MEMB      68              0.0000000000
      7545        68  CHL1      H8            -29.6512222010      -20.9912494952       12.1502093132  MEMB      68              0.0000000000
      7546        68  CHL1      C14           -29.4618034572      -19.2447382326       10.8583878799  MEMB      68              0.0000000000
      7547        68  CHL1      H14           -29.3445269059      -18.1472029490       11.0682147762  MEMB      68              0.0000000000
      7548        68  CHL1      C15           -30.6155427706      -19.2965715949        9.8302602614  MEMB      68              0.0000000000
      7549        68  CHL1      H15A          -31.0554901823      -20.3126905511        9.8047424564  MEMB      68              0.0000000000
      7550        68  CHL1      H15B          -31.4103745465      -18.5607238020       10.0681810732  MEMB      68              0.0000000000
      7551        68  CHL1      C16           -29.9089336727      -18.9774293839        8.4939754155  MEMB      68              0.0000000000
      7552        68  CHL1      H16A          -30.0359522287      -19.8343334051        7.8014759671  MEMB      68              0.0000000000
      7553        68  CHL1      H16B          -30.3250363660      -18.0700642860        8.0146993575  MEMB      68              0.0000000000
      7554        68  CHL1      C17           -28.3911409578      -18.8018132061        8.8451371434  MEMB      68              0.0000000000
      7555        68  CHL1      H17           -28.2853992160      -17.7372473894        9.1696867187  MEMB      68              0.0000000000
      7556        68  CHL1      C13           -28.2068561840      -19.6629917136       10.1008335269  MEMB      68              0.0000000000
      7557        68  CHL1      C18           -28.2674161974      -21.1651551786        9.7203980755  MEMB      68              0.0000000000
      7558        68  CHL1      H18A          -27.3706154312      -21.4480023437        9.1332469158  MEMB      68              0.0000000000
      7559        68  CHL1      H18B          -28.2867070458      -21.7949972395       10.6307691832  MEMB      68              0.0000000000
      7560        68  CHL1      H18C          -29.1662033197      -21.4143544373        9.1261377134  MEMB      68              0.0000000000
      7561        68  CHL1      C12           -26.9730796591      -19.3557967693       10.9523860659  MEMB      68              0.0000000000
      7562        68  CHL1      H12A          -26.0520431549      -19.7764506183       10.5104039299  MEMB      68              0.0000000000
      7563        68  CHL1      H12B          -26.8821630016      -18.2596206818       10.9858158275  MEMB      68              0.0000000000
      7564        68  CHL1      C11           -27.0816397349      -19.9033572227       12.3737624529  MEMB      68              0.0000000000
      7565        68  CHL1      H11A          -27.0399632609      -21.0109055954       12.3064435159  MEMB      68              0.0000000000
      7566        68  CHL1      H11B          -26.1981853367      -19.5547823014       12.9493096010  MEMB      68              0.0000000000
      7567        68  CHL1      C9            -28.3972697909      -19.4797782220       13.0686962583  MEMB      68              0.0000000000
      7568        68  CHL1      H9            -28.4148516625      -18.3607422421       13.0550716885  MEMB      68              0.0000000000
      7569        68  CHL1      C10           -28.4441519196      -19.8666797306       14.5630634596  MEMB      68              0.0000000000
      7570        68  CHL1      C19           -27.9933170320      -21.3450709809       14.7241490253  MEMB      68              0.0000000000
      7571        68  CHL1      H19A          -28.6191543594      -22.0153789133       14.0974685985  MEMB      68              0.0000000000
      7572        68  CHL1      H19B          -26.9357967546      -21.4774547983       14.4189722831  MEMB      68              0.0000000000
      7573        68  CHL1      H19C          -28.0597660951      -21.6816860280       15.7766444995  MEMB      68              0.0000000000
      7574        68  CHL1      C1            -27.4587164901      -18.9152571523       15.3198727239  MEMB      68              0.0000000000
      7575        68  CHL1      H1A           -26.4136229901      -19.1754608267       15.0462783742  MEMB      68              0.0000000000
      7576        68  CHL1      H1B           -27.6461304958      -17.8714968533       14.9759682280  MEMB      68              0.0000000000
      7577        68  CHL1      C2            -27.5956941603      -18.9201263322       16.8486574889  MEMB      68              0.0000000000
      7578        68  CHL1      H2A           -26.9484009337      -18.1354072968       17.3018561180  MEMB      68              0.0000000000
      7579        68  CHL1      H2B           -27.2713159973      -19.9073847616       17.2423506707  MEMB      68              0.0000000000
      7580        68  CHL1      C20           -27.4097316508      -18.9918266288        7.6809376067  MEMB      68              0.0000000000
      7581        68  CHL1      H20           -27.4135502725      -20.0668416766        7.3861146136  MEMB      68              0.0000000000
      7582        68  CHL1      C21           -25.9513917780      -18.6387832506        8.0589427036  MEMB      68              0.0000000000
      7583        68  CHL1      H21A          -25.3263947505      -18.5328721709        7.1493291487  MEMB      68              0.0000000000
      7584        68  CHL1      H21B          -25.4869895116      -19.4532010248        8.6461815496  MEMB      68              0.0000000000
      7585        68  CHL1      H21C          -25.8926522427      -17.6923222082        8.6292842524  MEMB      68              0.0000000000
      7586        68  CHL1      C22           -27.8279681953      -18.1804155577        6.4360617043  MEMB      68              0.0000000000
      7587        68  CHL1      H22A          -28.6037173628      -17.4303467608        6.7033125904  MEMB      68              0.0000000000
      7588        68  CHL1      H22B          -26.9629974676      -17.6053837970        6.0421326689  MEMB      68              0.0000000000
      7589        68  CHL1      C23           -28.3640492631      -19.1248279173        5.3566956871  MEMB      68              0.0000000000
      7590        68  CHL1      H23A          -27.5608313200      -19.7623263030        4.9479439263  MEMB      68              0.0000000000
      7591        68  CHL1      H23B          -29.0671657756      -19.8253036295        5.8503292747  MEMB      68              0.0000000000
      7592        68  CHL1      C24           -29.0556498962      -18.4020171436        4.2056417856  MEMB      68              0.0000000000
      7593        68  CHL1      H24A          -29.6392220761      -17.5470136308        4.6156454909  MEMB      68              0.0000000000
      7594        68  CHL1      H24B          -28.2970452083      -17.9885935925        3.5061723175  MEMB      68              0.0000000000
      7595        68  CHL1      C25           -30.0443869796      -19.3041958273        3.4510555565  MEMB      68              0.0000000000
      7596        68  CHL1      H25           -29.5266359574      -20.2360721659        3.1187845791  MEMB      68              0.0000000000
      7597        68  CHL1      C26           -31.2073736997      -19.7063014363        4.3738224862  MEMB      68              0.0000000000
      7598        68  CHL1      H26A          -30.9495184162      -20.5970713439        4.9836563500  MEMB      68              0.0000000000
      7599        68  CHL1      H26B          -31.4684107200      -18.8712525740        5.0535538400  MEMB      68              0.0000000000
      7600        68  CHL1      H26C          -32.1096180819      -19.9422061269        3.7824504641  MEMB      68              0.0000000000
      7601        68  CHL1      C27           -30.5656472546      -18.5832162564        2.2009240048  MEMB      68              0.0000000000
      7602        68  CHL1      H27A          -31.6231546366      -18.8594267837        2.0050820953  MEMB      68              0.0000000000
      7603        68  CHL1      H27B          -30.5186005826      -17.4848983870        2.3380268479  MEMB      68              0.0000000000
      7604        68  CHL1      H27C          -29.9627124166      -18.8542556311        1.3108663541  MEMB      68              0.0000000000
      7605        69  SAPC      N             -24.8453350899       27.0506737559       20.4887241519  MEMB      69              0.0000000000
      7606        69  SAPC      C12           -24.0120217299       26.7637298055       19.2393855848  MEMB      69              0.0000000000
      7607        69  SAPC      H12A          -23.4492445093       27.6635368947       18.9899869615  MEMB      69              0.0000000000
      7608        69  SAPC      H12B          -24.6782480909       26.5572888938       18.4115655315  MEMB      69              0.0000000000
      7609        69  SAPC      C13           -24.0016628353       27.8384410502       21.4362456036  MEMB      69              0.0000000000
      7610        69  SAPC      H13A          -23.0789217457       27.2597789664       21.5765457883  MEMB      69              0.0000000000
      7611        69  SAPC      H13B          -23.6775999034       28.7786085422       21.0110086447  MEMB      69              0.0000000000
      7612        69  SAPC      H13C          -24.4603803760       27.9942282103       22.3985156749  MEMB      69              0.0000000000
      7613        69  SAPC      C14           -26.1001497491       27.7500467328       20.1017759676  MEMB      69              0.0000000000
      7614        69  SAPC      H14A          -26.6328821998       27.1763466684       19.3429968498  MEMB      69              0.0000000000
      7615        69  SAPC      H14B          -26.7730688108       27.8391308325       20.9423992723  MEMB      69              0.0000000000
      7616        69  SAPC      H14C          -25.8993723334       28.7336882317       19.6982788731  MEMB      69              0.0000000000
      7617        69  SAPC      C15           -25.1606076910       25.7473362012       21.1531416110  MEMB      69              0.0000000000
      7618        69  SAPC      H15A          -25.7297053273       25.8528737894       22.0670378495  MEMB      69              0.0000000000
      7619        69  SAPC      H15B          -25.7186507324       25.0890022663       20.4918006402  MEMB      69              0.0000000000
      7620        69  SAPC      H15C          -24.2190782221       25.2414373688       21.3836193285  MEMB      69              0.0000000000
      7621        69  SAPC      C11           -22.9780863232       25.6167645139       19.3354601500  MEMB      69              0.0000000000
      7622        69  SAPC      H11A          -22.4011172433       25.5897806008       18.3898265610  MEMB      69              0.0000000000
      7623        69  SAPC      H11B          -23.4611870114       24.6196907979       19.4035789791  MEMB      69              0.0000000000
      7624        69  SAPC      P             -20.6335524876       25.4337487606       20.5401148184  MEMB      69              0.0000000000
      7625        69  SAPC      O13           -20.2939587045       25.0914127014       21.9376923622  MEMB      69              0.0000000000
      7626        69  SAPC      O14           -20.2529078698       24.4374744500       19.5065825352  MEMB      69              0.0000000000
      7627        69  SAPC      O12           -22.1543490564       25.8274078818       20.4671347811  MEMB      69              0.0000000000
      7628        69  SAPC      O11           -19.9257716522       26.8161871528       20.1984241386  MEMB      69              0.0000000000
      7629        69  SAPC      C1            -20.6257438080       28.0785143724       20.2059544707  MEMB      69              0.0000000000
      7630        69  SAPC      HA            -21.6073080999       28.0573196286       20.7066213366  MEMB      69              0.0000000000
      7631        69  SAPC      HB            -20.0377475458       28.8027559542       20.8147230773  MEMB      69              0.0000000000
      7632        69  SAPC      C2            -20.7386085356       28.7261050759       18.7877075155  MEMB      69              0.0000000000
      7633        69  SAPC      HS            -20.1225016485       29.6592840694       18.8599913619  MEMB      69              0.0000000000
      7634        69  SAPC      O21           -22.0911395005       29.0249126844       18.3482967712  MEMB      69              0.0000000000
      7635        69  SAPC      C21           -22.0507187954       29.9140839812       17.3254271303  MEMB      69              0.0000000000
      7636        69  SAPC      O22           -21.2112891250       30.7797609598       17.1804838624  MEMB      69              0.0000000000
      7637        69  SAPC      C22           -22.8879402602       29.3993937967       16.1527524650  MEMB      69              0.0000000000
      7638        69  SAPC      H2R           -23.7311237157       30.0911509977       16.0013332930  MEMB      69              0.0000000000
      7639        69  SAPC      H2S           -22.1610998306       29.5549881259       15.3321039740  MEMB      69              0.0000000000
      7640        69  SAPC      C3            -20.0740685279       27.8306983651       17.6974943508  MEMB      69              0.0000000000
      7641        69  SAPC      HX            -19.0264061206       27.7305872343       18.0118519618  MEMB      69              0.0000000000
      7642        69  SAPC      HY            -20.1000573970       28.4154529776       16.7706692042  MEMB      69              0.0000000000
      7643        69  SAPC      O31           -20.6609534227       26.5379423658       17.4363883789  MEMB      69              0.0000000000
      7644        69  SAPC      C31           -19.7941486808       25.7279358509       16.8091770481  MEMB      69              0.0000000000
      7645        69  SAPC      O32           -18.6541775338       26.0430340376       16.5294457170  MEMB      69              0.0000000000
      7646        69  SAPC      C32           -20.3916146779       24.4071604746       16.3634163107  MEMB      69              0.0000000000
      7647        69  SAPC      H2X           -20.5820490345       23.7428301949       17.2244378391  MEMB      69              0.0000000000
      7648        69  SAPC      H2Y           -19.5869178121       23.9419088323       15.7459994944  MEMB      69              0.0000000000
      7649        69  SAPC      C23           -23.3487559120       27.9096689326       16.0309971631  MEMB      69              0.0000000000
      7650        69  SAPC      H3R           -24.3425975014       27.8113828534       16.5182739263  MEMB      69              0.0000000000
      7651        69  SAPC      H3S           -22.6469280484       27.2198458978       16.5349902735  MEMB      69              0.0000000000
      7652        69  SAPC      C24           -23.4574482709       27.4383427438       14.5599205230  MEMB      69              0.0000000000
      7653        69  SAPC      H4R           -23.8611515493       26.4090057515       14.4685031446  MEMB      69              0.0000000000
      7654        69  SAPC      H4S           -22.4445058909       27.4290328814       14.1068354649  MEMB      69              0.0000000000
      7655        69  SAPC      C25           -24.3406933945       28.4334615361       13.8800923661  MEMB      69              0.0000000000
      7656        69  SAPC      H5R           -25.4293313052       28.3016588414       13.9883496837  MEMB      69              0.0000000000
      7657        69  SAPC      C26           -23.8929232427       29.4797434797       13.1871585982  MEMB      69              0.0000000000
      7658        69  SAPC      H6R           -24.5591386660       30.3321975705       13.1986478038  MEMB      69              0.0000000000
      7659        69  SAPC      C27           -22.4978514049       29.9307179157       12.8951720110  MEMB      69              0.0000000000
      7660        69  SAPC      H7R           -21.8117842482       29.0586195207       12.8737373474  MEMB      69              0.0000000000
      7661        69  SAPC      H7S           -22.1278520108       30.6395240950       13.6734403725  MEMB      69              0.0000000000
      7662        69  SAPC      C28           -22.6375669307       30.6107669305       11.5600246462  MEMB      69              0.0000000000
      7663        69  SAPC      H8R           -23.5088535558       31.2703397168       11.4134069304  MEMB      69              0.0000000000
      7664        69  SAPC      C29           -21.7905627275       30.4354882216       10.5472822433  MEMB      69              0.0000000000
      7665        69  SAPC      H9R           -22.0179044330       30.9103833338        9.5773963292  MEMB      69              0.0000000000
      7666        69  SAPC      C210          -20.5804738659       29.5377438716       10.6214262448  MEMB      69              0.0000000000
      7667        69  SAPC      H10R          -20.1373078340       29.5969428533       11.6406782073  MEMB      69              0.0000000000
      7668        69  SAPC      H10S          -19.7738259819       29.9293340650        9.9713092146  MEMB      69              0.0000000000
      7669        69  SAPC      C211          -20.8008797377       28.0807714044       10.3118154913  MEMB      69              0.0000000000
      7670        69  SAPC      H11R          -20.3737345705       27.3943911587       11.0567127275  MEMB      69              0.0000000000
      7671        69  SAPC      C212          -21.2256017249       27.5422945506        9.1539543952  MEMB      69              0.0000000000
      7672        69  SAPC      H12R          -21.2231007182       26.4456657310        9.0535304565  MEMB      69              0.0000000000
      7673        69  SAPC      C213          -21.5865306607       28.2634749416        7.8846986657  MEMB      69              0.0000000000
      7674        69  SAPC      H13R          -22.4374365804       28.9699965725        8.0252461220  MEMB      69              0.0000000000
      7675        69  SAPC      H13S          -21.8942044802       27.5228134168        7.1244341404  MEMB      69              0.0000000000
      7676        69  SAPC      C214          -20.3811803469       28.9518981092        7.3639709949  MEMB      69              0.0000000000
      7677        69  SAPC      H14R          -20.4447093643       30.0261672937        7.5024418413  MEMB      69              0.0000000000
      7678        69  SAPC      C215          -19.3583424626       28.3647722970        6.7241684418  MEMB      69              0.0000000000
      7679        69  SAPC      H15R          -18.4803055956       28.9647989571        6.4404846300  MEMB      69              0.0000000000
      7680        69  SAPC      C216          -19.2593278169       26.8913404631        6.4086747290  MEMB      69              0.0000000000
      7681        69  SAPC      H16R          -20.0082847151       26.2865771221        6.9677136695  MEMB      69              0.0000000000
      7682        69  SAPC      H16S          -18.2644021852       26.4769253548        6.6762235175  MEMB      69              0.0000000000
      7683        69  SAPC      C217          -19.5212062314       26.6964959725        4.9049767599  MEMB      69              0.0000000000
      7684        69  SAPC      H17R          -20.4702030102       27.2087596697        4.6582290277  MEMB      69              0.0000000000
      7685        69  SAPC      H17S          -19.6533555516       25.6071844086        4.7130554445  MEMB      69              0.0000000000
      7686        69  SAPC      C218          -18.3872819996       27.2128759717        4.0047269973  MEMB      69              0.0000000000
      7687        69  SAPC      H18R          -17.9831206347       26.3782548975        3.3906425115  MEMB      69              0.0000000000
      7688        69  SAPC      H18S          -17.6007798463       27.5740050954        4.6828987743  MEMB      69              0.0000000000
      7689        69  SAPC      C219          -18.6939674925       28.4096689240        3.1041750712  MEMB      69              0.0000000000
      7690        69  SAPC      H19R          -19.4832917403       28.1341956565        2.3930873590  MEMB      69              0.0000000000
      7691        69  SAPC      H19S          -17.7814395457       28.6638252808        2.5171974482  MEMB      69              0.0000000000
      7692        69  SAPC      C220          -19.1207916771       29.6469265560        3.8693637646  MEMB      69              0.0000000000
      7693        69  SAPC      H20R          -19.9892073813       29.4335671658        4.5213844847  MEMB      69              0.0000000000
      7694        69  SAPC      H20S          -19.4241611186       30.4655076865        3.1949916968  MEMB      69              0.0000000000
      7695        69  SAPC      H20T          -18.2699621896       29.9814487797        4.4935806739  MEMB      69              0.0000000000
      7696        69  SAPC      C33           -21.6259881830       24.5564352030       15.4670203392  MEMB      69              0.0000000000
      7697        69  SAPC      H3X           -21.5694544899       25.5065107434       14.8937305309  MEMB      69              0.0000000000
      7698        69  SAPC      H3Y           -22.5515704202       24.5897544352       16.0838043381  MEMB      69              0.0000000000
      7699        69  SAPC      C34           -21.6661498175       23.3884800849       14.4767345984  MEMB      69              0.0000000000
      7700        69  SAPC      H4X           -21.8262455854       22.4525100262       15.0567784908  MEMB      69              0.0000000000
      7701        69  SAPC      H4Y           -20.6856052776       23.2946004167       13.9594647135  MEMB      69              0.0000000000
      7702        69  SAPC      C35           -22.7669785788       23.5365541808       13.4364872309  MEMB      69              0.0000000000
      7703        69  SAPC      H5X           -23.6904734352       23.8931792792       13.9508889944  MEMB      69              0.0000000000
      7704        69  SAPC      H5Y           -23.0007605731       22.5447661106       12.9844456904  MEMB      69              0.0000000000
      7705        69  SAPC      C36           -22.4136748294       24.5043102753       12.3013682067  MEMB      69              0.0000000000
      7706        69  SAPC      H6X           -21.7338335312       24.0133714613       11.5712502508  MEMB      69              0.0000000000
      7707        69  SAPC      H6Y           -21.9118121639       25.4150452115       12.6839913487  MEMB      69              0.0000000000
      7708        69  SAPC      C37           -23.7105978431       24.9257435741       11.6370752852  MEMB      69              0.0000000000
      7709        69  SAPC      H7X           -24.2390283808       25.6373481719       12.3134141723  MEMB      69              0.0000000000
      7710        69  SAPC      H7Y           -24.3453395119       24.0112326063       11.5591213029  MEMB      69              0.0000000000
      7711        69  SAPC      C38           -23.6078295472       25.5583183831       10.2472277619  MEMB      69              0.0000000000
      7712        69  SAPC      H8X           -22.9054394157       24.9972362543        9.5972352171  MEMB      69              0.0000000000
      7713        69  SAPC      H8Y           -23.2700503193       26.6089318094       10.3651953378  MEMB      69              0.0000000000
      7714        69  SAPC      C39           -25.0249949585       25.5184345305        9.6923161934  MEMB      69              0.0000000000
      7715        69  SAPC      H9X           -25.5776999753       26.0694168824       10.4804337799  MEMB      69              0.0000000000
      7716        69  SAPC      H9Y           -25.3483602779       24.4541042295        9.6918915110  MEMB      69              0.0000000000
      7717        69  SAPC      C310          -25.4365174207       26.1619180595        8.3562488318  MEMB      69              0.0000000000
      7718        69  SAPC      H10X          -25.8434293516       27.1741182241        8.5627445998  MEMB      69              0.0000000000
      7719        69  SAPC      H10Y          -26.2721300978       25.5683064649        7.9241314498  MEMB      69              0.0000000000
      7720        69  SAPC      C311          -24.3068888102       26.2779228236        7.3541783567  MEMB      69              0.0000000000
      7721        69  SAPC      H11X          -23.8586418763       25.2762860587        7.1789928658  MEMB      69              0.0000000000
      7722        69  SAPC      H11Y          -23.5782986469       26.9020310500        7.8899408926  MEMB      69              0.0000000000
      7723        69  SAPC      C312          -24.6554355876       26.9430159127        6.0120438703  MEMB      69              0.0000000000
      7724        69  SAPC      H12X          -24.9869252698       27.9946369135        6.1683158552  MEMB      69              0.0000000000
      7725        69  SAPC      H12Y          -25.5057975494       26.3904460729        5.5551660804  MEMB      69              0.0000000000
      7726        69  SAPC      C313          -23.4489300105       26.9084110911        5.0558359795  MEMB      69              0.0000000000
      7727        69  SAPC      H13X          -22.8834534290       25.9659754748        5.2364959024  MEMB      69              0.0000000000
      7728        69  SAPC      H13Y          -22.7662734919       27.7582668155        5.2798553148  MEMB      69              0.0000000000
      7729        69  SAPC      C314          -23.8059158476       26.9679314233        3.5686655354  MEMB      69              0.0000000000
      7730        69  SAPC      H14X          -24.1479192686       28.0038900966        3.3467206363  MEMB      69              0.0000000000
      7731        69  SAPC      H14Y          -24.6507983267       26.2833811208        3.3429877281  MEMB      69              0.0000000000
      7732        69  SAPC      C315          -22.6134077213       26.6259303120        2.6526096661  MEMB      69              0.0000000000
      7733        69  SAPC      H15X          -21.6750490641       26.8599182971        3.1805906512  MEMB      69              0.0000000000
      7734        69  SAPC      H15Y          -22.6098553268       27.2819890294        1.7555037983  MEMB      69              0.0000000000
      7735        69  SAPC      C316          -22.5811965218       25.1619523127        2.1803986080  MEMB      69              0.0000000000
      7736        69  SAPC      H16X          -23.5750904734       24.8728714790        1.7720663773  MEMB      69              0.0000000000
      7737        69  SAPC      H16Y          -22.3705561390       24.5128585226        3.0598234042  MEMB      69              0.0000000000
      7738        69  SAPC      C317          -21.5193420392       24.9018681710        1.1008563589  MEMB      69              0.0000000000
      7739        69  SAPC      H17X          -21.8758580357       25.3137264037        0.1284955382  MEMB      69              0.0000000000
      7740        69  SAPC      H17Y          -21.4042072619       23.8023274577        0.9673888903  MEMB      69              0.0000000000
      7741        69  SAPC      C318          -20.1616325409       25.5237405601        1.4191778716  MEMB      69              0.0000000000
      7742        69  SAPC      H18X          -19.4390841694       25.3697586169        0.6014750711  MEMB      69              0.0000000000
      7743        69  SAPC      H18Y          -19.7352287830       25.1029902674        2.3547857000  MEMB      69              0.0000000000
      7744        69  SAPC      H18Z          -20.2690773381       26.6154283465        1.5266656856  MEMB      69              0.0000000000
      7745        70  SAPE      N              19.6743889836      -27.3606728166       19.3032585711  MEMB      70              0.0000000000
      7746        70  SAPE      HN1            20.4258925395      -26.7140578679       18.9746574207  MEMB      70              0.0000000000
      7747        70  SAPE      HN2            19.4637988307      -28.0485608886       18.5470229843  MEMB      70              0.0000000000
      7748        70  SAPE      HN3            18.7848825421      -26.8465636215       19.4714105636  MEMB      70              0.0000000000
      7749        70  SAPE      C12            20.0196735281      -28.1465389130       20.5555433228  MEMB      70              0.0000000000
      7750        70  SAPE      H12A           20.4481246070      -27.4609654624       21.3074375016  MEMB      70              0.0000000000
      7751        70  SAPE      H12B           20.7751975587      -28.9097989007       20.2769309361  MEMB      70              0.0000000000
      7752        70  SAPE      C11            18.7628847304      -28.8406558504       21.1017368902  MEMB      70              0.0000000000
      7753        70  SAPE      H11A           18.0505735404      -28.0885154915       21.5139918606  MEMB      70              0.0000000000
      7754        70  SAPE      H11B           19.0176707254      -29.5290285068       21.9439607729  MEMB      70              0.0000000000
      7755        70  SAPE      P              17.5847514129      -30.9829453443       20.0461407059  MEMB      70              0.0000000000
      7756        70  SAPE      O13            17.2933020282      -31.4090764159       21.4349642299  MEMB      70              0.0000000000
      7757        70  SAPE      O14            16.5161166277      -31.0431912812       19.0394388266  MEMB      70              0.0000000000
      7758        70  SAPE      O12            18.1346053172      -29.5014878365       20.0201297150  MEMB      70              0.0000000000
      7759        70  SAPE      O11            18.8553955434      -31.7742190848       19.5463931121  MEMB      70              0.0000000000
      7760        70  SAPE      C1             19.8254041105      -32.2537088379       20.4749403514  MEMB      70              0.0000000000
      7761        70  SAPE      HA             20.3263554919      -31.3804307989       20.9507490295  MEMB      70              0.0000000000
      7762        70  SAPE      HB             19.3478532257      -32.8901121421       21.2568495536  MEMB      70              0.0000000000
      7763        70  SAPE      C2             20.9572284730      -33.1053394637       19.8216546013  MEMB      70              0.0000000000
      7764        70  SAPE      HS             21.8184766688      -33.1355539982       20.5284319717  MEMB      70              0.0000000000
      7765        70  SAPE      O21            21.3527344993      -32.5783407088       18.5661260697  MEMB      70              0.0000000000
      7766        70  SAPE      C21            22.0731853628      -31.5234900917       18.5666226668  MEMB      70              0.0000000000
      7767        70  SAPE      O22            22.3883891119      -30.8227571664       19.5227524797  MEMB      70              0.0000000000
      7768        70  SAPE      C22            22.4537452910      -31.2457513599       17.1195781581  MEMB      70              0.0000000000
      7769        70  SAPE      H2R            23.5597207127      -31.2226852126       17.0749900603  MEMB      70              0.0000000000
      7770        70  SAPE      H2S            22.0981359194      -32.0789087188       16.4737689438  MEMB      70              0.0000000000
      7771        70  SAPE      C3             20.5770065675      -34.5753775828       19.5376754643  MEMB      70              0.0000000000
      7772        70  SAPE      HX             20.4194598036      -35.0959112430       20.5050668289  MEMB      70              0.0000000000
      7773        70  SAPE      HY             21.4393929504      -35.0729921347       19.0289734891  MEMB      70              0.0000000000
      7774        70  SAPE      O31            19.3778118421      -34.6574252654       18.7585295926  MEMB      70              0.0000000000
      7775        70  SAPE      C31            19.5411815609      -34.5638977980       17.4352734778  MEMB      70              0.0000000000
      7776        70  SAPE      O32            20.6028754072      -34.6097034225       16.8390433200  MEMB      70              0.0000000000
      7777        70  SAPE      C32            18.2037604934      -34.4655545926       16.7242142327  MEMB      70              0.0000000000
      7778        70  SAPE      H2X            17.6852678624      -35.4389405295       16.7820525063  MEMB      70              0.0000000000
      7779        70  SAPE      H2Y            18.4465336757      -34.2539569942       15.6641747601  MEMB      70              0.0000000000
      7780        70  SAPE      C23            21.8533175681      -29.9080069352       16.6589029237  MEMB      70              0.0000000000
      7781        70  SAPE      H3R            22.2352650244      -29.6821503439       15.6349491438  MEMB      70              0.0000000000
      7782        70  SAPE      H3S            22.2182502133      -29.0997570914       17.3317784290  MEMB      70              0.0000000000
      7783        70  SAPE      C24            20.3160208074      -29.9117988653       16.6444621356  MEMB      70              0.0000000000
      7784        70  SAPE      H4R            19.9473365487      -28.8651938942       16.6013982488  MEMB      70              0.0000000000
      7785        70  SAPE      H4S            19.9008460421      -30.3682339253       17.5688622534  MEMB      70              0.0000000000
      7786        70  SAPE      C25            19.8044946224      -30.6644781240       15.4589485455  MEMB      70              0.0000000000
      7787        70  SAPE      H5R            20.4359602566      -31.4848102525       15.0804955843  MEMB      70              0.0000000000
      7788        70  SAPE      C26            18.6412786901      -30.4150721321       14.8566850316  MEMB      70              0.0000000000
      7789        70  SAPE      H6R            18.3921084290      -31.0254238527       13.9783904842  MEMB      70              0.0000000000
      7790        70  SAPE      C27            17.5928740654      -29.3789355212       15.1853231628  MEMB      70              0.0000000000
      7791        70  SAPE      H7R            17.4882289144      -29.2935825609       16.2897311273  MEMB      70              0.0000000000
      7792        70  SAPE      H7S            16.6118007955      -29.7593691209       14.8383483438  MEMB      70              0.0000000000
      7793        70  SAPE      C28            17.7351387196      -28.0091321044       14.5762894558  MEMB      70              0.0000000000
      7794        70  SAPE      H8R            17.6021276887      -27.1744550374       15.2842680142  MEMB      70              0.0000000000
      7795        70  SAPE      C29            18.0459396225      -27.7263587508       13.2961133675  MEMB      70              0.0000000000
      7796        70  SAPE      H9R            18.1040529056      -26.6658834955       12.9987292253  MEMB      70              0.0000000000
      7797        70  SAPE      C210           18.3301704316      -28.6987594868       12.1806948522  MEMB      70              0.0000000000
      7798        70  SAPE      H10R           18.5357546846      -29.7189339149       12.5253284026  MEMB      70              0.0000000000
      7799        70  SAPE      H10S           19.3017820052      -28.4204783046       11.7428951446  MEMB      70              0.0000000000
      7800        70  SAPE      C211           17.2554137489      -28.8552802066       11.1476777268  MEMB      70              0.0000000000
      7801        70  SAPE      H11R           16.2523627164      -29.1192201026       11.5200929405  MEMB      70              0.0000000000
      7802        70  SAPE      C212           17.4553386932      -28.6364271974        9.8408161814  MEMB      70              0.0000000000
      7803        70  SAPE      H12R           16.6380593709      -28.8258281565        9.1298095909  MEMB      70              0.0000000000
      7804        70  SAPE      C213           18.7689891103      -28.2012732113        9.2445994863  MEMB      70              0.0000000000
      7805        70  SAPE      H13R           19.2954955708      -27.5142677678        9.9289981386  MEMB      70              0.0000000000
      7806        70  SAPE      H13S           18.5716165595      -27.5462654192        8.3763572128  MEMB      70              0.0000000000
      7807        70  SAPE      C214           19.7078061023      -29.3206209386        8.8879816180  MEMB      70              0.0000000000
      7808        70  SAPE      H14R           20.5228048682      -29.5272978910        9.6007788589  MEMB      70              0.0000000000
      7809        70  SAPE      C215           19.6394627018      -30.0362211842        7.7610096186  MEMB      70              0.0000000000
      7810        70  SAPE      H15R           20.4073562185      -30.7954051836        7.5562793704  MEMB      70              0.0000000000
      7811        70  SAPE      C216           18.6354526652      -29.8620481808        6.6651294774  MEMB      70              0.0000000000
      7812        70  SAPE      H16R           17.5970934316      -29.9548700386        7.0459317952  MEMB      70              0.0000000000
      7813        70  SAPE      H16S           18.8083061153      -30.7327771981        6.0083530768  MEMB      70              0.0000000000
      7814        70  SAPE      C217           18.7259631856      -28.5780693991        5.8148457715  MEMB      70              0.0000000000
      7815        70  SAPE      H17R           19.7767401460      -28.4262940233        5.4836821522  MEMB      70              0.0000000000
      7816        70  SAPE      H17S           18.4427775417      -27.6749196516        6.3934358265  MEMB      70              0.0000000000
      7817        70  SAPE      C218           17.8259084283      -28.6607474691        4.5742407936  MEMB      70              0.0000000000
      7818        70  SAPE      H18R           17.9929324326      -27.7805671438        3.9172494963  MEMB      70              0.0000000000
      7819        70  SAPE      H18S           16.7618248681      -28.6360583697        4.9036847889  MEMB      70              0.0000000000
      7820        70  SAPE      C219           18.0618830463      -29.9687258170        3.8126035996  MEMB      70              0.0000000000
      7821        70  SAPE      H19R           17.4087930224      -30.7352678723        4.2887759509  MEMB      70              0.0000000000
      7822        70  SAPE      H19S           19.1189269089      -30.2926359685        3.9657461779  MEMB      70              0.0000000000
      7823        70  SAPE      C220           17.7983012538      -29.9310591561        2.3150439478  MEMB      70              0.0000000000
      7824        70  SAPE      H20R           17.0040515895      -29.1950171741        2.0750581075  MEMB      70              0.0000000000
      7825        70  SAPE      H20S           17.4884385396      -30.9393092327        1.9653943528  MEMB      70              0.0000000000
      7826        70  SAPE      H20T           18.7296357765      -29.6502191035        1.7800708564  MEMB      70              0.0000000000
      7827        70  SAPE      C33            17.3151325565      -33.3564150511       17.3012258123  MEMB      70              0.0000000000
      7828        70  SAPE      H3X            17.7709755902      -32.3551762966       17.1039149609  MEMB      70              0.0000000000
      7829        70  SAPE      H3Y            17.2339240258      -33.4602436793       18.4093171650  MEMB      70              0.0000000000
      7830        70  SAPE      C34            15.8806401900      -33.3168729542       16.7706412157  MEMB      70              0.0000000000
      7831        70  SAPE      H4X            15.5780291256      -32.2850869191       17.0453249906  MEMB      70              0.0000000000
      7832        70  SAPE      H4Y            15.2456584912      -34.0316436779       17.3482768596  MEMB      70              0.0000000000
      7833        70  SAPE      C35            15.6936996846      -33.5898064827       15.2646161960  MEMB      70              0.0000000000
      7834        70  SAPE      H5X            14.6177067218      -33.5343773382       14.9874041510  MEMB      70              0.0000000000
      7835        70  SAPE      H5Y            16.0226996048      -34.6232237465       15.1871204013  MEMB      70              0.0000000000
      7836        70  SAPE      C36            16.5405031302      -32.7045768065       14.3380515396  MEMB      70              0.0000000000
      7837        70  SAPE      H6X            17.5802255719      -32.7208153335       14.7139773619  MEMB      70              0.0000000000
      7838        70  SAPE      H6Y            16.1268440203      -31.6853426876       14.4890802575  MEMB      70              0.0000000000
      7839        70  SAPE      C37            16.6035966650      -32.9569990891       12.8133562356  MEMB      70              0.0000000000
      7840        70  SAPE      H7X            16.6107554292      -31.9462380458       12.3340727627  MEMB      70              0.0000000000
      7841        70  SAPE      H7Y            15.6901219899      -33.4778170207       12.4641815925  MEMB      70              0.0000000000
      7842        70  SAPE      C38            17.8864025852      -33.6544979068       12.2923721734  MEMB      70              0.0000000000
      7843        70  SAPE      H8X            17.9804751589      -34.6487629885       12.7667666234  MEMB      70              0.0000000000
      7844        70  SAPE      H8Y            18.7856102770      -33.0668961269       12.5860884186  MEMB      70              0.0000000000
      7845        70  SAPE      C39            17.8841669769      -33.8323408716       10.7552948925  MEMB      70              0.0000000000
      7846        70  SAPE      H9X            18.0995043178      -32.8514042841       10.2766374821  MEMB      70              0.0000000000
      7847        70  SAPE      H9Y            16.8570489426      -34.1251086182       10.4575782995  MEMB      70              0.0000000000
      7848        70  SAPE      C310           18.8488792833      -34.9015886208       10.1904989495  MEMB      70              0.0000000000
      7849        70  SAPE      H10X           18.7613977583      -35.8213439186       10.8055005264  MEMB      70              0.0000000000
      7850        70  SAPE      H10Y           19.8984200844      -34.5529632399       10.2891435834  MEMB      70              0.0000000000
      7851        70  SAPE      C311           18.5683146096      -35.3241965971        8.7212575687  MEMB      70              0.0000000000
      7852        70  SAPE      H11X           17.5764501652      -35.8239141101        8.6895269911  MEMB      70              0.0000000000
      7853        70  SAPE      H11Y           19.3197392624      -36.0904255046        8.4297402389  MEMB      70              0.0000000000
      7854        70  SAPE      C312           18.5898233077      -34.1677354461        7.6954530019  MEMB      70              0.0000000000
      7855        70  SAPE      H12X           19.5834917310      -33.6726878673        7.7627287601  MEMB      70              0.0000000000
      7856        70  SAPE      H12Y           17.8210927796      -33.4227988674        7.9979468583  MEMB      70              0.0000000000
      7857        70  SAPE      C313           18.3169335313      -34.5459395419        6.2138435129  MEMB      70              0.0000000000
      7858        70  SAPE      H13X           17.3077055401      -35.0044001199        6.1247386637  MEMB      70              0.0000000000
      7859        70  SAPE      H13Y           19.0437314695      -35.2923652040        5.8541253929  MEMB      70              0.0000000000
      7860        70  SAPE      C314           18.4257712547      -33.3383948728        5.2560044261  MEMB      70              0.0000000000
      7861        70  SAPE      H14X           19.3858024888      -32.8108539633        5.4452824481  MEMB      70              0.0000000000
      7862        70  SAPE      H14Y           17.6095853275      -32.6333959471        5.5214747710  MEMB      70              0.0000000000
      7863        70  SAPE      C315           18.3274983638      -33.6485191318        3.7420324236  MEMB      70              0.0000000000
      7864        70  SAPE      H15X           17.8868025677      -32.7549829093        3.2442147237  MEMB      70              0.0000000000
      7865        70  SAPE      H15Y           17.6188826828      -34.4871738704        3.5686403542  MEMB      70              0.0000000000
      7866        70  SAPE      C316           19.6939877892      -33.9259453437        3.0801445258  MEMB      70              0.0000000000
      7867        70  SAPE      H16X           20.0448116087      -34.9388589422        3.3652615572  MEMB      70              0.0000000000
      7868        70  SAPE      H16Y           20.4304406771      -33.2135606258        3.4969471924  MEMB      70              0.0000000000
      7869        70  SAPE      C317           19.7850447053      -33.7749846032        1.5492617852  MEMB      70              0.0000000000
      7870        70  SAPE      H17X           20.6734461780      -34.3570297083        1.2096461711  MEMB      70              0.0000000000
      7871        70  SAPE      H17Y           19.9897541490      -32.7072644135        1.3024780766  MEMB      70              0.0000000000
      7872        70  SAPE      C318           18.5615093150      -34.2338807473        0.7574836603  MEMB      70              0.0000000000
      7873        70  SAPE      H18X           18.7292681845      -34.0943414266       -0.3328816561  MEMB      70              0.0000000000
      7874        70  SAPE      H18Y           17.6696861151      -33.6436839625        1.0562717054  MEMB      70              0.0000000000
      7875        70  SAPE      H18Z           18.3508206320      -35.3048438655        0.9398931404  MEMB      70              0.0000000000
      7876        71  SAPE      N             -36.0762786502        9.2090430310       22.1222116313  MEMB      71              0.0000000000
      7877        71  SAPE      HN1           -36.4211282165        8.7300420483       22.9769072563  MEMB      71              0.0000000000
      7878        71  SAPE      HN2           -36.6978925856       10.0139456691       21.9152633706  MEMB      71              0.0000000000
      7879        71  SAPE      HN3           -36.0984079913        8.5107617711       21.3219338949  MEMB      71              0.0000000000
      7880        71  SAPE      C12           -34.6443953900        9.6594213377       22.2994522201  MEMB      71              0.0000000000
      7881        71  SAPE      H12A          -34.1203426424        8.8933498406       22.9071686854  MEMB      71              0.0000000000
      7882        71  SAPE      H12B          -34.6661978743       10.6164729540       22.8627005679  MEMB      71              0.0000000000
      7883        71  SAPE      C11           -33.9025200272        9.8587727406       20.9557110111  MEMB      71              0.0000000000
      7884        71  SAPE      H11A          -33.0093401358       10.4959098081       21.1620119519  MEMB      71              0.0000000000
      7885        71  SAPE      H11B          -34.5385588828       10.4533830297       20.2583157274  MEMB      71              0.0000000000
      7886        71  SAPE      P             -34.3504957814        7.8518168880       19.3190894757  MEMB      71              0.0000000000
      7887        71  SAPE      O13           -33.5837053581        6.7640948956       18.6835733170  MEMB      71              0.0000000000
      7888        71  SAPE      O14           -35.5951154407        7.5171175819       20.0538457005  MEMB      71              0.0000000000
      7889        71  SAPE      O12           -33.4409524375        8.6228322746       20.3774114026  MEMB      71              0.0000000000
      7890        71  SAPE      O11           -34.6091578751        9.0134607756       18.2800346702  MEMB      71              0.0000000000
      7891        71  SAPE      C1            -33.5139424592        9.8242338514       17.8275198862  MEMB      71              0.0000000000
      7892        71  SAPE      HA            -33.5217872925       10.8073179955       18.3412151347  MEMB      71              0.0000000000
      7893        71  SAPE      HB            -32.5102843183        9.3847391383       18.0603514141  MEMB      71              0.0000000000
      7894        71  SAPE      C2            -33.5846656172        9.9785259804       16.2866938562  MEMB      71              0.0000000000
      7895        71  SAPE      HS            -32.7091931357       10.5808822815       15.9538116654  MEMB      71              0.0000000000
      7896        71  SAPE      O21           -34.8093847920       10.5804369854       15.8124234368  MEMB      71              0.0000000000
      7897        71  SAPE      C21           -35.0420933621       11.7854489149       16.2614122409  MEMB      71              0.0000000000
      7898        71  SAPE      O22           -34.3101207097       12.4686599991       16.9553003237  MEMB      71              0.0000000000
      7899        71  SAPE      C22           -36.3608602475       12.3281422508       15.6959927981  MEMB      71              0.0000000000
      7900        71  SAPE      H2R           -37.0768409468       11.4952646088       15.5685422883  MEMB      71              0.0000000000
      7901        71  SAPE      H2S           -36.7584335155       13.0283959018       16.4584340427  MEMB      71              0.0000000000
      7902        71  SAPE      C3            -33.4674345393        8.5699565734       15.6603740813  MEMB      71              0.0000000000
      7903        71  SAPE      HX            -34.4672599859        8.0871816408       15.8034881807  MEMB      71              0.0000000000
      7904        71  SAPE      HY            -32.7360708791        7.9791744171       16.2544219794  MEMB      71              0.0000000000
      7905        71  SAPE      O31           -33.0158046272        8.6599181632       14.2901051977  MEMB      71              0.0000000000
      7906        71  SAPE      C31           -33.7113563064        7.9336299468       13.4166874938  MEMB      71              0.0000000000
      7907        71  SAPE      O32           -34.6376546066        7.2000144258       13.6968854085  MEMB      71              0.0000000000
      7908        71  SAPE      C32           -33.1850910128        8.2208217326       12.0014805258  MEMB      71              0.0000000000
      7909        71  SAPE      H2X           -32.0928178833        8.3693666815       12.0788873293  MEMB      71              0.0000000000
      7910        71  SAPE      H2Y           -33.6517689063        9.1698181772       11.6662684809  MEMB      71              0.0000000000
      7911        71  SAPE      C23           -36.1687426980       13.0944678349       14.3626611432  MEMB      71              0.0000000000
      7912        71  SAPE      H3R           -35.0900314466       13.3154190915       14.1917033426  MEMB      71              0.0000000000
      7913        71  SAPE      H3S           -36.7079904608       14.0702872298       14.4148140829  MEMB      71              0.0000000000
      7914        71  SAPE      C24           -36.6882420521       12.2858167822       13.1612133423  MEMB      71              0.0000000000
      7915        71  SAPE      H4R           -37.7348726164       12.0054785784       13.3405271982  MEMB      71              0.0000000000
      7916        71  SAPE      H4S           -36.1284713257       11.3256610843       13.1252956966  MEMB      71              0.0000000000
      7917        71  SAPE      C25           -36.6544102384       13.0116265971       11.8459364578  MEMB      71              0.0000000000
      7918        71  SAPE      H5R           -37.4560132458       13.7471932247       11.6926756464  MEMB      71              0.0000000000
      7919        71  SAPE      C26           -35.7264899666       12.8788652202       10.8895506850  MEMB      71              0.0000000000
      7920        71  SAPE      H6R           -35.8372030274       13.4791877676        9.9737956511  MEMB      71              0.0000000000
      7921        71  SAPE      C27           -34.5125203578       11.9907274691       10.9079144290  MEMB      71              0.0000000000
      7922        71  SAPE      H7R           -34.6314581517       11.1751872476       10.1603573705  MEMB      71              0.0000000000
      7923        71  SAPE      H7S           -34.3636574730       11.4903238460       11.8905479815  MEMB      71              0.0000000000
      7924        71  SAPE      C28           -33.3535931013       12.9130373760       10.5995188841  MEMB      71              0.0000000000
      7925        71  SAPE      H8R           -32.9407328272       13.4213267934       11.4894893852  MEMB      71              0.0000000000
      7926        71  SAPE      C29           -32.7466484104       13.1049100376        9.4073152548  MEMB      71              0.0000000000
      7927        71  SAPE      H9R           -31.8549078932       13.7515664018        9.3845667793  MEMB      71              0.0000000000
      7928        71  SAPE      C210          -33.0734431384       12.4293316468        8.0923691389  MEMB      71              0.0000000000
      7929        71  SAPE      H10R          -33.4563909230       11.4353819590        8.3932449871  MEMB      71              0.0000000000
      7930        71  SAPE      H10S          -32.0770456134       12.2778272639        7.6337377120  MEMB      71              0.0000000000
      7931        71  SAPE      C211          -33.8948309343       12.8670823210        6.8943992578  MEMB      71              0.0000000000
      7932        71  SAPE      H11R          -33.9233371320       13.9381665339        6.6395076020  MEMB      71              0.0000000000
      7933        71  SAPE      C212          -34.5199380863       11.9949461811        6.0671273553  MEMB      71              0.0000000000
      7934        71  SAPE      H12R          -35.0596056255       12.3982997629        5.1915059620  MEMB      71              0.0000000000
      7935        71  SAPE      C213          -34.5316011105       10.4754357109        6.1749810236  MEMB      71              0.0000000000
      7936        71  SAPE      H13R          -35.0708762910       10.0517780551        5.3027522230  MEMB      71              0.0000000000
      7937        71  SAPE      H13S          -35.1728149299       10.2193171080        7.0479563429  MEMB      71              0.0000000000
      7938        71  SAPE      C214          -33.2263058020        9.7345074260        6.3514831664  MEMB      71              0.0000000000
      7939        71  SAPE      H14R          -32.7299911761        9.9601571302        7.2979947833  MEMB      71              0.0000000000
      7940        71  SAPE      C215          -32.6736850977        8.7560521641        5.6156674926  MEMB      71              0.0000000000
      7941        71  SAPE      H15R          -31.6988325597        8.3646909446        5.9438736931  MEMB      71              0.0000000000
      7942        71  SAPE      C216          -33.2111542129        8.0994620560        4.3737342277  MEMB      71              0.0000000000
      7943        71  SAPE      H16R          -34.3169147194        8.1808605595        4.3256284268  MEMB      71              0.0000000000
      7944        71  SAPE      H16S          -32.9534082487        7.0155555504        4.3801327872  MEMB      71              0.0000000000
      7945        71  SAPE      C217          -32.7226166509        8.7044226314        3.0690547164  MEMB      71              0.0000000000
      7946        71  SAPE      H17R          -32.5924736296        7.8999120216        2.3202485907  MEMB      71              0.0000000000
      7947        71  SAPE      H17S          -31.7326827366        9.1428152039        3.2113124771  MEMB      71              0.0000000000
      7948        71  SAPE      C218          -33.6810592393        9.7912560049        2.6061026974  MEMB      71              0.0000000000
      7949        71  SAPE      H18R          -34.0838816982       10.3002450916        3.5074107170  MEMB      71              0.0000000000
      7950        71  SAPE      H18S          -34.5665669624        9.3698842027        2.0881273309  MEMB      71              0.0000000000
      7951        71  SAPE      C219          -33.0612059257       10.8951499953        1.7713325599  MEMB      71              0.0000000000
      7952        71  SAPE      H19R          -32.7347441933       10.5463906884        0.7680491766  MEMB      71              0.0000000000
      7953        71  SAPE      H19S          -32.1570565370       11.2904627995        2.2811550800  MEMB      71              0.0000000000
      7954        71  SAPE      C220          -34.1509259726       11.9422784853        1.6506290210  MEMB      71              0.0000000000
      7955        71  SAPE      H20R          -33.8380647089       12.8025503334        1.0237975824  MEMB      71              0.0000000000
      7956        71  SAPE      H20S          -34.4618921131       12.3165946516        2.6475727151  MEMB      71              0.0000000000
      7957        71  SAPE      H20T          -35.0394306613       11.4532327153        1.2084691662  MEMB      71              0.0000000000
      7958        71  SAPE      C33           -33.4577940055        7.1053762877       10.9538559037  MEMB      71              0.0000000000
      7959        71  SAPE      H3X           -34.5286730613        6.8101539100       10.9918907851  MEMB      71              0.0000000000
      7960        71  SAPE      H3Y           -32.8551192206        6.2118142835       11.2247646315  MEMB      71              0.0000000000
      7961        71  SAPE      C34           -33.0838912081        7.5225506332        9.5129293029  MEMB      71              0.0000000000
      7962        71  SAPE      H4X           -32.0253907169        7.8535246786        9.5219497891  MEMB      71              0.0000000000
      7963        71  SAPE      H4Y           -33.6897061452        8.3939497205        9.1944551787  MEMB      71              0.0000000000
      7964        71  SAPE      C35           -33.1673161316        6.4126092809        8.4425476202  MEMB      71              0.0000000000
      7965        71  SAPE      H5X           -32.4330862266        5.6254829490        8.7367743277  MEMB      71              0.0000000000
      7966        71  SAPE      H5Y           -32.8333622804        6.8044767818        7.4615026249  MEMB      71              0.0000000000
      7967        71  SAPE      C36           -34.5394153474        5.7349472576        8.2720857807  MEMB      71              0.0000000000
      7968        71  SAPE      H6X           -34.9456137924        5.5642780050        9.2923802857  MEMB      71              0.0000000000
      7969        71  SAPE      H6Y           -34.3928127309        4.7555350271        7.7823843907  MEMB      71              0.0000000000
      7970        71  SAPE      C37           -35.6243631935        6.4773800918        7.4905849866  MEMB      71              0.0000000000
      7971        71  SAPE      H7X           -35.5096376097        7.5250277519        7.8340319243  MEMB      71              0.0000000000
      7972        71  SAPE      H7Y           -36.6345569595        6.0918094787        7.7543616116  MEMB      71              0.0000000000
      7973        71  SAPE      C38           -35.4646028584        6.6029390932        5.9860985053  MEMB      71              0.0000000000
      7974        71  SAPE      H8X           -34.4145111649        6.3613411384        5.7475385123  MEMB      71              0.0000000000
      7975        71  SAPE      H8Y           -35.6302729792        7.6852059501        5.7652674052  MEMB      71              0.0000000000
      7976        71  SAPE      C39           -36.4193171393        5.8544467265        5.0503593775  MEMB      71              0.0000000000
      7977        71  SAPE      H9X           -37.4747274621        5.9891283576        5.3713055798  MEMB      71              0.0000000000
      7978        71  SAPE      H9Y           -36.2030559435        4.7649060059        5.0585852382  MEMB      71              0.0000000000
      7979        71  SAPE      C310          -36.2419041393        6.4328078273        3.6325810386  MEMB      71              0.0000000000
      7980        71  SAPE      H10X          -35.1599718592        6.4552219026        3.3877192631  MEMB      71              0.0000000000
      7981        71  SAPE      H10Y          -36.5481476066        7.4938931895        3.6037320788  MEMB      71              0.0000000000
      7982        71  SAPE      C311          -36.9571493914        5.6539911490        2.5313171184  MEMB      71              0.0000000000
      7983        71  SAPE      H11X          -37.9156908408        5.2554989222        2.9029024203  MEMB      71              0.0000000000
      7984        71  SAPE      H11Y          -36.3130942515        4.7906715175        2.3185042297  MEMB      71              0.0000000000
      7985        71  SAPE      C312          -37.1386846336        6.4594335083        1.2357015376  MEMB      71              0.0000000000
      7986        71  SAPE      H12X          -36.2499164720        7.1125612732        1.1525140653  MEMB      71              0.0000000000
      7987        71  SAPE      H12Y          -38.0193252480        7.1262665356        1.3279383695  MEMB      71              0.0000000000
      7988        71  SAPE      C313          -37.1941500401        5.6227433255       -0.0563392160  MEMB      71              0.0000000000
      7989        71  SAPE      H13X          -38.0111729627        4.8700998966       -0.0396570269  MEMB      71              0.0000000000
      7990        71  SAPE      H13Y          -36.2517730305        5.0387497674       -0.1014472599  MEMB      71              0.0000000000
      7991        71  SAPE      C314          -37.2672823034        6.4755963218       -1.3425517292  MEMB      71              0.0000000000
      7992        71  SAPE      H14X          -37.3367555675        7.5504620153       -1.0698971795  MEMB      71              0.0000000000
      7993        71  SAPE      H14Y          -38.1903951691        6.1988448085       -1.9028921410  MEMB      71              0.0000000000
      7994        71  SAPE      C315          -36.0452551145        6.2338553463       -2.2461772484  MEMB      71              0.0000000000
      7995        71  SAPE      H15X          -36.0263631156        5.1589520259       -2.4519404626  MEMB      71              0.0000000000
      7996        71  SAPE      H15Y          -35.0933460636        6.3787223659       -1.7197953265  MEMB      71              0.0000000000
      7997        71  SAPE      C316          -35.9444061146        7.0189401512       -3.5613862210  MEMB      71              0.0000000000
      7998        71  SAPE      H16X          -36.9215940622        7.1515350850       -4.0636314691  MEMB      71              0.0000000000
      7999        71  SAPE      H16Y          -35.3163453171        6.3884052165       -4.2381248671  MEMB      71              0.0000000000
      8000        71  SAPE      C317          -35.1817731749        8.3415781397       -3.4075535860  MEMB      71              0.0000000000
      8001        71  SAPE      H17X          -34.5457013479        8.2815571952       -2.5000184895  MEMB      71              0.0000000000
      8002        71  SAPE      H17Y          -35.8931460718        9.1776280888       -3.2331995655  MEMB      71              0.0000000000
      8003        71  SAPE      C318          -34.2550842288        8.6305119918       -4.5925778161  MEMB      71              0.0000000000
      8004        71  SAPE      H18X          -33.7183045752        7.7088577659       -4.9010407747  MEMB      71              0.0000000000
      8005        71  SAPE      H18Y          -33.4933053525        9.3962523255       -4.3260406520  MEMB      71              0.0000000000
      8006        71  SAPE      H18Z          -34.8478800932        8.9889066533       -5.4576069237  MEMB      71              0.0000000000
      8007        72  CHL1      C3             19.1246415512       30.7743985300       17.5138100595  MEMB      72              0.0000000000
      8008        72  CHL1      H3             19.7863337497       31.6777869217       17.5318636244  MEMB      72              0.0000000000
      8009        72  CHL1      O3             18.7050975277       30.4442142707       18.8312666036  MEMB      72              0.0000000000
      8010        72  CHL1      H3'            18.3514500719       31.2856089903       19.1706100247  MEMB      72              0.0000000000
      8011        72  CHL1      C4             17.8884985243       31.0908300067       16.6516044586  MEMB      72              0.0000000000
      8012        72  CHL1      H4A            17.1388518689       30.2814983006       16.7703845323  MEMB      72              0.0000000000
      8013        72  CHL1      H4B            17.4059179903       32.0075230390       17.0622820493  MEMB      72              0.0000000000
      8014        72  CHL1      C5             18.2611456064       31.2779903923       15.1957052914  MEMB      72              0.0000000000
      8015        72  CHL1      C6             17.9756600031       32.4084355321       14.5444239584  MEMB      72              0.0000000000
      8016        72  CHL1      H6             17.4104488488       33.2018951607       15.0525183451  MEMB      72              0.0000000000
      8017        72  CHL1      C7             18.3594529243       32.6526547859       13.1233483100  MEMB      72              0.0000000000
      8018        72  CHL1      H7A            17.5040704363       33.1013629408       12.5654756644  MEMB      72              0.0000000000
      8019        72  CHL1      H7B            19.2023341096       33.3760755170       13.1020662024  MEMB      72              0.0000000000
      8020        72  CHL1      C8             18.7480428447       31.3710912645       12.3645437204  MEMB      72              0.0000000000
      8021        72  CHL1      H8             17.7770390036       30.8900841627       12.1121029857  MEMB      72              0.0000000000
      8022        72  CHL1      C14            19.5788277101       31.6758373837       11.1444386041  MEMB      72              0.0000000000
      8023        72  CHL1      H14            20.6397901803       31.8039049326       11.4986455403  MEMB      72              0.0000000000
      8024        72  CHL1      C15            19.3792031595       33.0307869968       10.4850241636  MEMB      72              0.0000000000
      8025        72  CHL1      H15A           18.3929519854       33.4384788338       10.7434162654  MEMB      72              0.0000000000
      8026        72  CHL1      H15B           20.1008920236       33.7479128060       10.9272921969  MEMB      72              0.0000000000
      8027        72  CHL1      C16            19.6386496958       32.7339619929        9.0147963199  MEMB      72              0.0000000000
      8028        72  CHL1      H16A           18.6645356528       32.7923341104        8.4913104450  MEMB      72              0.0000000000
      8029        72  CHL1      H16B           20.3272170801       33.4586986314        8.5526142344  MEMB      72              0.0000000000
      8030        72  CHL1      C17            20.2033046364       31.2768634146        8.8825200544  MEMB      72              0.0000000000
      8031        72  CHL1      H17            21.3115662748       31.3480084235        9.0050289050  MEMB      72              0.0000000000
      8032        72  CHL1      C13            19.6682337971       30.5340332282       10.1284439478  MEMB      72              0.0000000000
      8033        72  CHL1      C18            18.2964164078       29.9139282852        9.7672149608  MEMB      72              0.0000000000
      8034        72  CHL1      H18A           17.7730468668       29.5061121514       10.6504413661  MEMB      72              0.0000000000
      8035        72  CHL1      H18B           17.6434844457       30.6694132000        9.2926205092  MEMB      72              0.0000000000
      8036        72  CHL1      H18C           18.4276514482       29.0617548676        9.0676125203  MEMB      72              0.0000000000
      8037        72  CHL1      C12            20.5747865239       29.5090288535       10.8520022251  MEMB      72              0.0000000000
      8038        72  CHL1      H12A           20.6753514528       28.5790999274       10.2594412354  MEMB      72              0.0000000000
      8039        72  CHL1      H12B           21.5870228600       29.9565946171       10.9655132615  MEMB      72              0.0000000000
      8040        72  CHL1      C11            20.0275155210       29.1836765444       12.2787351470  MEMB      72              0.0000000000
      8041        72  CHL1      H11A           19.1367711315       28.5396450772       12.1223187535  MEMB      72              0.0000000000
      8042        72  CHL1      H11B           20.7810008031       28.5944015200       12.8360722733  MEMB      72              0.0000000000
      8043        72  CHL1      C9             19.6196329004       30.4241381360       13.1580045968  MEMB      72              0.0000000000
      8044        72  CHL1      H9             20.5613741018       30.9938542748       13.3568330697  MEMB      72              0.0000000000
      8045        72  CHL1      C10            19.0724982681       30.1303806042       14.5709263384  MEMB      72              0.0000000000
      8046        72  CHL1      C19            18.1516073099       28.9113235112       14.4734403211  MEMB      72              0.0000000000
      8047        72  CHL1      H19A           18.7994989794       28.0219704509       14.3202567671  MEMB      72              0.0000000000
      8048        72  CHL1      H19B           17.5748779211       28.7291111168       15.4016961759  MEMB      72              0.0000000000
      8049        72  CHL1      H19C           17.4369190800       28.9961428749       13.6277510176  MEMB      72              0.0000000000
      8050        72  CHL1      C1             20.2821261612       29.7934372152       15.4819523149  MEMB      72              0.0000000000
      8051        72  CHL1      H1A            20.7647859881       28.8658779837       15.1030138791  MEMB      72              0.0000000000
      8052        72  CHL1      H1B            21.0338680931       30.6139394551       15.4276872511  MEMB      72              0.0000000000
      8053        72  CHL1      C2             19.9065393920       29.5844099070       16.9540263606  MEMB      72              0.0000000000
      8054        72  CHL1      H2A            20.8324699639       29.4312124360       17.5515459108  MEMB      72              0.0000000000
      8055        72  CHL1      H2B            19.2765048243       28.6728738294       17.0420688696  MEMB      72              0.0000000000
      8056        72  CHL1      C20            19.9315202051       30.7244960162        7.4597781435  MEMB      72              0.0000000000
      8057        72  CHL1      H20            18.8852063964       30.3690131358        7.3558992310  MEMB      72              0.0000000000
      8058        72  CHL1      C21            20.8733631247       29.5422679794        7.2033256501  MEMB      72              0.0000000000
      8059        72  CHL1      H21A           20.7329270334       28.7643905243        7.9790952853  MEMB      72              0.0000000000
      8060        72  CHL1      H21B           21.9271607837       29.8872138517        7.2311447050  MEMB      72              0.0000000000
      8061        72  CHL1      H21C           20.6731237796       29.0863346813        6.2102756177  MEMB      72              0.0000000000
      8062        72  CHL1      C22            20.1053240221       31.8763593207        6.4316130482  MEMB      72              0.0000000000
      8063        72  CHL1      H22A           19.2467088225       32.5792599553        6.5177371514  MEMB      72              0.0000000000
      8064        72  CHL1      H22B           21.0407180739       32.4057749763        6.7280798774  MEMB      72              0.0000000000
      8065        72  CHL1      C23            20.2575066035       31.6432698720        4.9255720143  MEMB      72              0.0000000000
      8066        72  CHL1      H23A           21.0606543639       30.8959805133        4.7738359851  MEMB      72              0.0000000000
      8067        72  CHL1      H23B           19.3260134078       31.2659316104        4.4528456726  MEMB      72              0.0000000000
      8068        72  CHL1      C24            20.6273304429       33.0349501164        4.3576289621  MEMB      72              0.0000000000
      8069        72  CHL1      H24A           19.7486912984       33.7031677457        4.4800734010  MEMB      72              0.0000000000
      8070        72  CHL1      H24B           21.4299521023       33.4588247084        5.0012221560  MEMB      72              0.0000000000
      8071        72  CHL1      C25            21.1497536787       33.1518542352        2.9203551844  MEMB      72              0.0000000000
      8072        72  CHL1      H25            20.2986646905       33.4137282387        2.2462560622  MEMB      72              0.0000000000
      8073        72  CHL1      C26            22.1727778809       34.2804412623        2.7851575657  MEMB      72              0.0000000000
      8074        72  CHL1      H26A           22.4915593150       34.3422844006        1.7301873655  MEMB      72              0.0000000000
      8075        72  CHL1      H26B           21.7606932372       35.2639655958        3.0827164990  MEMB      72              0.0000000000
      8076        72  CHL1      H26C           23.0759747050       34.0576245684        3.3897112622  MEMB      72              0.0000000000
      8077        72  CHL1      C27            21.8016800354       31.8764357113        2.4068025771  MEMB      72              0.0000000000
      8078        72  CHL1      H27A           22.1878831494       31.2248432118        3.1984547221  MEMB      72              0.0000000000
      8079        72  CHL1      H27B           21.0719590812       31.2864639902        1.8295163729  MEMB      72              0.0000000000
      8080        72  CHL1      H27C           22.6514158914       32.1336952457        1.7411647786  MEMB      72              0.0000000000
      8081        73  SAPI      C12             7.1137546405       33.9438248013       23.7954633667  MEMB      73              0.0000000000
      8082        73  SAPI      H2              7.9927913955       33.6356582858       23.1670253006  MEMB      73              0.0000000000
      8083        73  SAPI      O2              6.0344896904       33.0472874717       23.5235938463  MEMB      73              0.0000000000
      8084        73  SAPI      HO2             5.9316228800       33.0375998409       22.5623465376  MEMB      73              0.0000000000
      8085        73  SAPI      C13             7.5180235393       33.8373709663       25.2470506337  MEMB      73              0.0000000000
      8086        73  SAPI      H3              8.4214569786       34.4739213600       25.4020143903  MEMB      73              0.0000000000
      8087        73  SAPI      O3              7.9245160751       32.5069176745       25.5521376616  MEMB      73              0.0000000000
      8088        73  SAPI      HO3             7.3553391907       31.9309933058       25.0244454963  MEMB      73              0.0000000000
      8089        73  SAPI      C14             6.3839333183       34.3469742391       26.1430362972  MEMB      73              0.0000000000
      8090        73  SAPI      H4              5.4897272640       33.6926355298       26.0139136966  MEMB      73              0.0000000000
      8091        73  SAPI      O4              6.7837975138       34.2758038418       27.5017837351  MEMB      73              0.0000000000
      8092        73  SAPI      HO4             7.6123988175       34.7654180739       27.5177298107  MEMB      73              0.0000000000
      8093        73  SAPI      C15             6.0028328035       35.7849379817       25.8025592155  MEMB      73              0.0000000000
      8094        73  SAPI      H5              6.9158690886       36.4131918583       25.9475646699  MEMB      73              0.0000000000
      8095        73  SAPI      O5              4.9768484388       36.3278962532       26.6597013147  MEMB      73              0.0000000000
      8096        73  SAPI      HO5             4.1994557237       36.4911457449       26.0981710150  MEMB      73              0.0000000000
      8097        73  SAPI      C16             5.6113187838       35.8840903679       24.3385060864  MEMB      73              0.0000000000
      8098        73  SAPI      H6              4.7099946700       35.2530765336       24.1563121450  MEMB      73              0.0000000000
      8099        73  SAPI      O6              5.2927702768       37.2389788499       24.0368498895  MEMB      73              0.0000000000
      8100        73  SAPI      HO6             4.5916278473       37.2519368181       23.3565519672  MEMB      73              0.0000000000
      8101        73  SAPI      C11             6.7586981130       35.3922385041       23.4767239377  MEMB      73              0.0000000000
      8102        73  SAPI      H1              7.6641058139       35.9993042067       23.7538024101  MEMB      73              0.0000000000
      8103        73  SAPI      P               7.5268246395       36.2576130797       21.0854152665  MEMB      73              0.0000000000
      8104        73  SAPI      O13             8.8881045581       35.7286203200       21.3463006303  MEMB      73              0.0000000000
      8105        73  SAPI      O14             7.3565319465       37.7114696876       21.3416469080  MEMB      73              0.0000000000
      8106        73  SAPI      O12             6.4464138196       35.4806665634       22.0792009248  MEMB      73              0.0000000000
      8107        73  SAPI      O11             6.8984462817       36.0076999881       19.6511150901  MEMB      73              0.0000000000
      8108        73  SAPI      C1              5.4778563838       36.1626228295       19.4581334907  MEMB      73              0.0000000000
      8109        73  SAPI      HA              4.9055431736       36.3771120039       20.3966234479  MEMB      73              0.0000000000
      8110        73  SAPI      HB              5.2943108477       37.0053376804       18.7562155360  MEMB      73              0.0000000000
      8111        73  SAPI      C2              4.8626165088       34.8764542075       18.8539977161  MEMB      73              0.0000000000
      8112        73  SAPI      HS              5.1261356684       34.0725202825       19.5707985780  MEMB      73              0.0000000000
      8113        73  SAPI      O21             5.4554844625       34.6949746198       17.5752227713  MEMB      73              0.0000000000
      8114        73  SAPI      C21             6.2755213180       33.6948335178       17.4650455658  MEMB      73              0.0000000000
      8115        73  SAPI      O22             6.2940469016       32.6650261928       18.1177095151  MEMB      73              0.0000000000
      8116        73  SAPI      C22             7.1562219575       34.0654989425       16.3185520621  MEMB      73              0.0000000000
      8117        73  SAPI      H2R             7.6037801610       35.0702051110       16.5132813489  MEMB      73              0.0000000000
      8118        73  SAPI      H2S             7.9736457099       33.3239957626       16.2486033114  MEMB      73              0.0000000000
      8119        73  SAPI      C3              3.3115639979       34.9802544668       18.7156255954  MEMB      73              0.0000000000
      8120        73  SAPI      HX              3.0447954642       35.9592417100       19.1627525629  MEMB      73              0.0000000000
      8121        73  SAPI      HY              2.8560452565       34.2138604513       19.3790865047  MEMB      73              0.0000000000
      8122        73  SAPI      O31             2.8374648774       34.9205790141       17.3375433589  MEMB      73              0.0000000000
      8123        73  SAPI      C31             1.7450832048       34.1965698341       17.1152618006  MEMB      73              0.0000000000
      8124        73  SAPI      O32             1.1540685163       33.5338656870       17.9502672287  MEMB      73              0.0000000000
      8125        73  SAPI      C32             1.3442463016       34.2728122437       15.6376362147  MEMB      73              0.0000000000
      8126        73  SAPI      H2X             0.8666652886       35.2458993599       15.4308947666  MEMB      73              0.0000000000
      8127        73  SAPI      H2Y             0.5708993816       33.4972185036       15.4685910235  MEMB      73              0.0000000000
      8128        73  SAPI      C23             6.3166905032       34.0940538973       15.0373718438  MEMB      73              0.0000000000
      8129        73  SAPI      H3R             5.8201032685       35.0934515078       14.9210136701  MEMB      73              0.0000000000
      8130        73  SAPI      H3S             5.5276381623       33.3072648933       15.0079741323  MEMB      73              0.0000000000
      8131        73  SAPI      C24             7.3162110452       33.8520970073       13.9437354011  MEMB      73              0.0000000000
      8132        73  SAPI      H4R             7.7955757664       32.8561031708       14.0279361119  MEMB      73              0.0000000000
      8133        73  SAPI      H4S             8.0854619407       34.6238695180       14.1760363917  MEMB      73              0.0000000000
      8134        73  SAPI      C25             6.7264517938       34.0025538312       12.5947022360  MEMB      73              0.0000000000
      8135        73  SAPI      H5R             5.8810064937       33.3520081721       12.3501832679  MEMB      73              0.0000000000
      8136        73  SAPI      C26             7.2228007623       34.7921832079       11.6615282757  MEMB      73              0.0000000000
      8137        73  SAPI      H6R             6.6859849002       34.8505102442       10.7032000442  MEMB      73              0.0000000000
      8138        73  SAPI      C27             8.4494178877       35.6511155585       11.8075229087  MEMB      73              0.0000000000
      8139        73  SAPI      H7R             9.2278545845       35.3478851251       11.0681056996  MEMB      73              0.0000000000
      8140        73  SAPI      H7S             8.9305951351       35.5959303588       12.7895145342  MEMB      73              0.0000000000
      8141        73  SAPI      C28             8.1734146313       37.0910138295       11.6917499398  MEMB      73              0.0000000000
      8142        73  SAPI      H8R             8.3910410536       37.7308993670       12.5603722095  MEMB      73              0.0000000000
      8143        73  SAPI      C29             7.5793928649       37.6204156125       10.6557828431  MEMB      73              0.0000000000
      8144        73  SAPI      H9R             7.8032536459       38.6739487548       10.5513940651  MEMB      73              0.0000000000
      8145        73  SAPI      C210            7.0751809399       36.9226989344        9.4280424920  MEMB      73              0.0000000000
      8146        73  SAPI      H10R            6.0587804006       36.5151903210        9.5932831631  MEMB      73              0.0000000000
      8147        73  SAPI      H10S            7.7617884184       36.1105768456        9.0970383203  MEMB      73              0.0000000000
      8148        73  SAPI      C211            7.0520113408       38.0077238095        8.4281780708  MEMB      73              0.0000000000
      8149        73  SAPI      H11R            7.7054130217       38.8371043628        8.6882601682  MEMB      73              0.0000000000
      8150        73  SAPI      C212            6.2534838334       38.2544215078        7.4149272484  MEMB      73              0.0000000000
      8151        73  SAPI      H12R            6.6062381182       38.9978636518        6.6973429976  MEMB      73              0.0000000000
      8152        73  SAPI      C213            5.1148145548       37.4177406741        7.0313710417  MEMB      73              0.0000000000
      8153        73  SAPI      H13R            4.7510195254       36.8904307288        7.9305312132  MEMB      73              0.0000000000
      8154        73  SAPI      H13S            5.5892118310       36.6846100526        6.3557726669  MEMB      73              0.0000000000
      8155        73  SAPI      C214            3.9060740839       38.0507390154        6.4205826075  MEMB      73              0.0000000000
      8156        73  SAPI      H14R            3.3774280085       38.8007676861        7.0269585533  MEMB      73              0.0000000000
      8157        73  SAPI      C215            3.4808411271       37.7869869669        5.1879832638  MEMB      73              0.0000000000
      8158        73  SAPI      H15R            2.5558386774       38.2590149804        4.8272623685  MEMB      73              0.0000000000
      8159        73  SAPI      C216            4.1256499480       36.8472792252        4.2065509180  MEMB      73              0.0000000000
      8160        73  SAPI      H16R            3.6535432889       35.8403094567        4.1798902017  MEMB      73              0.0000000000
      8161        73  SAPI      H16S            5.2263058713       36.7119695792        4.3523960338  MEMB      73              0.0000000000
      8162        73  SAPI      C217            3.9018398294       37.6120884431        2.9144059374  MEMB      73              0.0000000000
      8163        73  SAPI      H17R            4.4447936854       38.5905340270        2.9711609187  MEMB      73              0.0000000000
      8164        73  SAPI      H17S            2.8200092609       37.8232613478        2.7423682796  MEMB      73              0.0000000000
      8165        73  SAPI      C218            4.4232299201       36.8872169787        1.6946207476  MEMB      73              0.0000000000
      8166        73  SAPI      H18R            3.6576741060       36.1532358721        1.3607802881  MEMB      73              0.0000000000
      8167        73  SAPI      H18S            5.3415428697       36.3160695644        1.9532220869  MEMB      73              0.0000000000
      8168        73  SAPI      C219            4.7332250181       37.9247613017        0.6196258676  MEMB      73              0.0000000000
      8169        73  SAPI      H19R            5.0916443176       37.3842203338       -0.2701875786  MEMB      73              0.0000000000
      8170        73  SAPI      H19S            5.5877195113       38.5511333981        0.9642875419  MEMB      73              0.0000000000
      8171        73  SAPI      C220            3.5566951558       38.8460892502        0.2695596601  MEMB      73              0.0000000000
      8172        73  SAPI      H20R            2.6190410759       38.2827639855        0.0921164781  MEMB      73              0.0000000000
      8173        73  SAPI      H20S            3.7979234709       39.4080362843       -0.6568530167  MEMB      73              0.0000000000
      8174        73  SAPI      H20T            3.3699849886       39.5909993030        1.0751601488  MEMB      73              0.0000000000
      8175        73  SAPI      C33             2.5413402672       34.0236092926       14.7065522050  MEMB      73              0.0000000000
      8176        73  SAPI      H3X             3.0372304784       33.0679111682       14.9578133104  MEMB      73              0.0000000000
      8177        73  SAPI      H3Y             3.3503902985       34.7637783113       14.8770316434  MEMB      73              0.0000000000
      8178        73  SAPI      C34             2.1575513211       33.9634039991       13.2184314992  MEMB      73              0.0000000000
      8179        73  SAPI      H4X             1.7975157105       34.9482025975       12.8531309435  MEMB      73              0.0000000000
      8180        73  SAPI      H4Y             1.3352422792       33.2334433114       13.0682467774  MEMB      73              0.0000000000
      8181        73  SAPI      C35             3.4119086247       33.5496554753       12.4573329104  MEMB      73              0.0000000000
      8182        73  SAPI      H5X             3.7096639491       32.5342631608       12.8153576843  MEMB      73              0.0000000000
      8183        73  SAPI      H5Y             4.1883166548       34.2765185582       12.7743502143  MEMB      73              0.0000000000
      8184        73  SAPI      C36             3.3625509707       33.5121801283       10.9307277007  MEMB      73              0.0000000000
      8185        73  SAPI      H6X             2.4467722140       32.9890533005       10.5855095084  MEMB      73              0.0000000000
      8186        73  SAPI      H6Y             4.2608933304       32.9371507160       10.5904457604  MEMB      73              0.0000000000
      8187        73  SAPI      C37             3.3914136291       34.8518140842       10.2081540433  MEMB      73              0.0000000000
      8188        73  SAPI      H7X             4.3081358819       35.4192162335       10.4849561340  MEMB      73              0.0000000000
      8189        73  SAPI      H7Y             2.5045372638       35.4612635957       10.4877274625  MEMB      73              0.0000000000
      8190        73  SAPI      C38             3.4134774706       34.5998379181        8.7031527969  MEMB      73              0.0000000000
      8191        73  SAPI      H8X             3.1065424704       35.5278038971        8.1698977790  MEMB      73              0.0000000000
      8192        73  SAPI      H8Y             2.6897299806       33.8020772093        8.4236956948  MEMB      73              0.0000000000
      8193        73  SAPI      C39             4.8115333361       34.1902975019        8.2339743554  MEMB      73              0.0000000000
      8194        73  SAPI      H9X             5.0973800166       33.1870373176        8.6045397382  MEMB      73              0.0000000000
      8195        73  SAPI      H9Y             5.5550219510       34.8961857703        8.6488423652  MEMB      73              0.0000000000
      8196        73  SAPI      C310            4.9131530903       34.2822600388        6.7262146673  MEMB      73              0.0000000000
      8197        73  SAPI      H10X            5.9687502657       34.3881421804        6.3891364552  MEMB      73              0.0000000000
      8198        73  SAPI      H10Y            4.3463967972       35.1828284628        6.4080554506  MEMB      73              0.0000000000
      8199        73  SAPI      C311            4.2079384230       33.1866915193        5.9740000251  MEMB      73              0.0000000000
      8200        73  SAPI      H11X            4.3319180626       33.4890841003        4.9179331386  MEMB      73              0.0000000000
      8201        73  SAPI      H11Y            3.1158693707       33.1980958884        6.1962252565  MEMB      73              0.0000000000
      8202        73  SAPI      C312            4.7529178193       31.7843217231        6.1940243349  MEMB      73              0.0000000000
      8203        73  SAPI      H12X            4.3920203704       31.4516552058        7.1901547850  MEMB      73              0.0000000000
      8204        73  SAPI      H12Y            5.8575383086       31.7352247281        6.2171730491  MEMB      73              0.0000000000
      8205        73  SAPI      C313            4.2160058236       30.9028393297        5.0712179156  MEMB      73              0.0000000000
      8206        73  SAPI      H13X            3.1295778139       31.1153822934        5.0555269072  MEMB      73              0.0000000000
      8207        73  SAPI      H13Y            4.3841445031       29.8250549730        5.2737055979  MEMB      73              0.0000000000
      8208        73  SAPI      C314            4.7391606289       31.2584109580        3.6761792367  MEMB      73              0.0000000000
      8209        73  SAPI      H14X            4.8828073943       30.3090032654        3.1122586704  MEMB      73              0.0000000000
      8210        73  SAPI      H14Y            5.7260584055       31.7567868804        3.7561288941  MEMB      73              0.0000000000
      8211        73  SAPI      C315            3.7578305527       32.1528433007        2.9073819377  MEMB      73              0.0000000000
      8212        73  SAPI      H15X            4.0667611608       33.2208084346        2.9539929197  MEMB      73              0.0000000000
      8213        73  SAPI      H15Y            2.7352872814       32.0837109463        3.3487474652  MEMB      73              0.0000000000
      8214        73  SAPI      C316            3.6021424510       31.7613230753        1.4563963138  MEMB      73              0.0000000000
      8215        73  SAPI      H16X            3.3207107429       30.6913271518        1.3922266894  MEMB      73              0.0000000000
      8216        73  SAPI      H16Y            4.5695340041       31.8963101870        0.9182033610  MEMB      73              0.0000000000
      8217        73  SAPI      C317            2.4875277448       32.5844815926        0.8286571126  MEMB      73              0.0000000000
      8218        73  SAPI      H17X            2.8300395705       33.6255538395        0.7832502141  MEMB      73              0.0000000000
      8219        73  SAPI      H17Y            1.5959105122       32.6851511595        1.4761209174  MEMB      73              0.0000000000
      8220        73  SAPI      C318            2.1202069016       32.0149723781       -0.5317001885  MEMB      73              0.0000000000
      8221        73  SAPI      H18X            3.0515572923       31.7803777239       -1.0761358948  MEMB      73              0.0000000000
      8222        73  SAPI      H18Y            1.5524520653       32.6996668085       -1.1760303540  MEMB      73              0.0000000000
      8223        73  SAPI      H18Z            1.5200457989       31.0943614925       -0.4093983763  MEMB      73              0.0000000000
      8224        74  OSM       N              30.7920340821      -23.1584414023       21.3824456490  MEMB      74              0.0000000000
      8225        74  OSM       C15            31.1619587820      -22.0611502159       20.4332428591  MEMB      74              0.0000000000
      8226        74  OSM       H15A           30.2946865411      -21.6520568776       19.9193884702  MEMB      74              0.0000000000
      8227        74  OSM       H15B           31.9298457913      -22.3734105229       19.7377200328  MEMB      74              0.0000000000
      8228        74  OSM       H15C           31.5840275009      -21.2147683157       20.9660142395  MEMB      74              0.0000000000
      8229        74  OSM       C14            30.2685041635      -24.3174482722       20.5833006591  MEMB      74              0.0000000000
      8230        74  OSM       H14A           29.5065050933      -23.9566449315       19.8960082442  MEMB      74              0.0000000000
      8231        74  OSM       H14B           29.8044012465      -25.0577031884       21.2260170632  MEMB      74              0.0000000000
      8232        74  OSM       H14C           31.0177457385      -24.8244592471       19.9962601114  MEMB      74              0.0000000000
      8233        74  OSM       C13            32.0072969108      -23.5208040311       22.1678199148  MEMB      74              0.0000000000
      8234        74  OSM       H13A           32.2606580650      -22.7696301953       22.9161872747  MEMB      74              0.0000000000
      8235        74  OSM       H13B           32.8860693160      -23.5786883703       21.5244533698  MEMB      74              0.0000000000
      8236        74  OSM       H13C           31.8652279851      -24.4556432086       22.6979370971  MEMB      74              0.0000000000
      8237        74  OSM       C12            29.7141943582      -22.7000451882       22.3646132799  MEMB      74              0.0000000000
      8238        74  OSM       H12A           30.0781043005      -21.8339933669       22.9024832656  MEMB      74              0.0000000000
      8239        74  OSM       H12B           29.5712985870      -23.4731442195       23.1077996641  MEMB      74              0.0000000000
      8240        74  OSM       C11            28.3308521350      -22.3068985418       21.8110305415  MEMB      74              0.0000000000
      8241        74  OSM       H11A           27.6496816862      -22.0528467718       22.6583790526  MEMB      74              0.0000000000
      8242        74  OSM       H11B           27.8638418467      -23.1389710110       21.2376497166  MEMB      74              0.0000000000
      8243        74  OSM       P              27.6249918484      -19.9521622466       20.7453796454  MEMB      74              0.0000000000
      8244        74  OSM       O13            26.5165916726      -19.8814640686       21.7213865499  MEMB      74              0.0000000000
      8245        74  OSM       O14            28.5481717929      -18.7874444312       20.6585040113  MEMB      74              0.0000000000
      8246        74  OSM       O11            27.1052676684      -20.3332887933       19.3170058239  MEMB      74              0.0000000000
      8247        74  OSM       O12            28.5398276884      -21.2028316273       20.9767940010  MEMB      74              0.0000000000
      8248        74  OSM       C1S            28.0613098929      -20.7557254105       18.3372918965  MEMB      74              0.0000000000
      8249        74  OSM       H1S            28.2915942982      -21.8368920145       18.4643499412  MEMB      74              0.0000000000
      8250        74  OSM       H1T            29.0301552971      -20.1873175895       18.3792392070  MEMB      74              0.0000000000
      8251        74  OSM       NF             28.6374552832      -20.5848649330       16.0105586175  MEMB      74              0.0000000000
      8252        74  OSM       HNF            29.1514138183      -19.7222027275       15.9142669088  MEMB      74              0.0000000000
      8253        74  OSM       C2S            27.4871246746      -20.5214232844       16.9281487913  MEMB      74              0.0000000000
      8254        74  OSM       H2S            26.7575940932      -21.3290697171       16.7059624128  MEMB      74              0.0000000000
      8255        74  OSM       C3S            26.7249421479      -19.1495927281       16.9240002860  MEMB      74              0.0000000000
      8256        74  OSM       H3S            27.4223145511      -18.3621611387       17.2786908505  MEMB      74              0.0000000000
      8257        74  OSM       O3             25.5521124789      -18.9951160732       17.7281161465  MEMB      74              0.0000000000
      8258        74  OSM       HO3            25.4533593324      -19.8395231617       18.1883386989  MEMB      74              0.0000000000
      8259        74  OSM       C4S            26.2504887274      -18.8366815937       15.5536079549  MEMB      74              0.0000000000
      8260        74  OSM       H4S            25.3616827167      -19.4003559788       15.2324027839  MEMB      74              0.0000000000
      8261        74  OSM       C5S            26.7808204020      -17.8914871061       14.7728509160  MEMB      74              0.0000000000
      8262        74  OSM       H5S            27.6373354346      -17.3067044430       15.1426786678  MEMB      74              0.0000000000
      8263        74  OSM       C6S            26.3046601905      -17.5522396404       13.4020210632  MEMB      74              0.0000000000
      8264        74  OSM       H6S            25.5348852480      -16.7711115943       13.5142604858  MEMB      74              0.0000000000
      8265        74  OSM       H6T            25.8052827718      -18.4049763276       12.8950480092  MEMB      74              0.0000000000
      8266        74  OSM       C7S            27.4327215335      -16.9503491259       12.5632273540  MEMB      74              0.0000000000
      8267        74  OSM       H7S            27.9071435915      -16.1064488544       13.1065322606  MEMB      74              0.0000000000
      8268        74  OSM       H7T            27.0058917350      -16.5185630242       11.6391356705  MEMB      74              0.0000000000
      8269        74  OSM       C8S            28.5296061949      -17.9354553839       12.1825437566  MEMB      74              0.0000000000
      8270        74  OSM       H8S            29.0166025809      -18.3238606641       13.1053036263  MEMB      74              0.0000000000
      8271        74  OSM       H8T            29.2858378188      -17.3680565987       11.5987825749  MEMB      74              0.0000000000
      8272        74  OSM       C9S            28.0429061632      -19.1216084647       11.3597317185  MEMB      74              0.0000000000
      8273        74  OSM       H9S            27.4177563196      -19.7694262693       12.0168751988  MEMB      74              0.0000000000
      8274        74  OSM       H9T            28.9018876867      -19.7490621267       11.0440005190  MEMB      74              0.0000000000
      8275        74  OSM       C10S           27.1862250323      -18.8093426111       10.1340540879  MEMB      74              0.0000000000
      8276        74  OSM       H10S           26.1281493776      -18.6327248646       10.4394724498  MEMB      74              0.0000000000
      8277        74  OSM       H10T           27.2542160872      -19.7620177598        9.5543194788  MEMB      74              0.0000000000
      8278        74  OSM       C11S           27.5281860440      -17.7241448369        9.1150464383  MEMB      74              0.0000000000
      8279        74  OSM       H11S           28.5600818362      -17.8403162815        8.7607602161  MEMB      74              0.0000000000
      8280        74  OSM       H11T           27.4248260633      -16.6869642709        9.4972837649  MEMB      74              0.0000000000
      8281        74  OSM       C12S           26.5725348347      -18.0079441096        7.9535557844  MEMB      74              0.0000000000
      8282        74  OSM       H12S           25.5346536656      -17.6864158329        8.1798268727  MEMB      74              0.0000000000
      8283        74  OSM       H12T           26.5127132227      -19.1170043102        7.8725399086  MEMB      74              0.0000000000
      8284        74  OSM       C13S           27.0399271495      -17.5713770858        6.5776621326  MEMB      74              0.0000000000
      8285        74  OSM       H13S           28.1365120999      -17.6706408788        6.5010245544  MEMB      74              0.0000000000
      8286        74  OSM       H13T           26.7834337860      -16.5095851470        6.3933514896  MEMB      74              0.0000000000
      8287        74  OSM       C14S           26.3799265101      -18.4655563173        5.5340827051  MEMB      74              0.0000000000
      8288        74  OSM       H14S           25.3245400038      -18.1020055634        5.4769188681  MEMB      74              0.0000000000
      8289        74  OSM       H14T           26.3600405845      -19.5304895701        5.8623385452  MEMB      74              0.0000000000
      8290        74  OSM       C15S           26.9980922701      -18.3827555507        4.1443852219  MEMB      74              0.0000000000
      8291        74  OSM       H15S           27.5342285241      -17.4149549944        4.0450941602  MEMB      74              0.0000000000
      8292        74  OSM       H15T           26.1395037304      -18.3803200399        3.4376169490  MEMB      74              0.0000000000
      8293        74  OSM       C16S           27.8865515280      -19.5662215977        3.7291221694  MEMB      74              0.0000000000
      8294        74  OSM       H16S           27.8752573475      -20.3529279246        4.5163679951  MEMB      74              0.0000000000
      8295        74  OSM       H16T           28.9340431598      -19.2002919500        3.6444146384  MEMB      74              0.0000000000
      8296        74  OSM       C17S           27.4295724978      -20.1718530294        2.3835045534  MEMB      74              0.0000000000
      8297        74  OSM       H17S           27.7071704887      -19.4694129402        1.5628931667  MEMB      74              0.0000000000
      8298        74  OSM       H17T           26.3161426974      -20.2562773016        2.3774195558  MEMB      74              0.0000000000
      8299        74  OSM       C18S           28.0080996474      -21.5509715883        2.0608277973  MEMB      74              0.0000000000
      8300        74  OSM       H18S           29.0646657233      -21.6222520297        2.3995014065  MEMB      74              0.0000000000
      8301        74  OSM       H18T           27.9818332657      -21.7383948156        0.9630086964  MEMB      74              0.0000000000
      8302        74  OSM       H18U           27.4118781752      -22.3482245914        2.5539699782  MEMB      74              0.0000000000
      8303        74  OSM       C1F            29.1871362915      -21.7601056519       15.6696666720  MEMB      74              0.0000000000
      8304        74  OSM       OF             28.6033405930      -22.7965441632       15.9839546433  MEMB      74              0.0000000000
      8305        74  OSM       C2F            30.5389040183      -21.7856578864       14.9357998647  MEMB      74              0.0000000000
      8306        74  OSM       H2F            30.3376436274      -21.9246419049       13.8536612341  MEMB      74              0.0000000000
      8307        74  OSM       H2G            31.0581603960      -22.6913401352       15.3184311079  MEMB      74              0.0000000000
      8308        74  OSM       C3F            31.5160680450      -20.5701378930       15.1295932040  MEMB      74              0.0000000000
      8309        74  OSM       H3F            31.7313039857      -20.5593401280       16.2316263704  MEMB      74              0.0000000000
      8310        74  OSM       H3G            31.0057642477      -19.6275783474       14.8764208008  MEMB      74              0.0000000000
      8311        74  OSM       C4F            32.9299841829      -20.6011561882       14.4321588064  MEMB      74              0.0000000000
      8312        74  OSM       H4F            33.3346436951      -21.6172387866       14.5048542257  MEMB      74              0.0000000000
      8313        74  OSM       H4G            33.5740832054      -19.9036121315       15.0215344875  MEMB      74              0.0000000000
      8314        74  OSM       C5F            33.1453622266      -20.1396077132       12.9600003937  MEMB      74              0.0000000000
      8315        74  OSM       H5F            33.2787600387      -19.0437233021       13.0765211861  MEMB      74              0.0000000000
      8316        74  OSM       H5G            32.1712934859      -20.3053836180       12.4784406852  MEMB      74              0.0000000000
      8317        74  OSM       C6F            34.4081596220      -20.7437858279       12.1815742569  MEMB      74              0.0000000000
      8318        74  OSM       H6F            34.5888025114      -21.7771774720       12.5377055572  MEMB      74              0.0000000000
      8319        74  OSM       H6G            35.2857222441      -20.1317168923       12.4925552311  MEMB      74              0.0000000000
      8320        74  OSM       C7F            34.5054074082      -20.7917030554       10.5968327435  MEMB      74              0.0000000000
      8321        74  OSM       H7F            35.2643710653      -20.0131442626       10.3272636035  MEMB      74              0.0000000000
      8322        74  OSM       H7G            33.6314742785      -20.2860111979       10.1985928663  MEMB      74              0.0000000000
      8323        74  OSM       C8F            35.1040442045      -22.0868201699        9.7813121679  MEMB      74              0.0000000000
      8324        74  OSM       H8F            36.0182983746      -22.2591786735       10.3689943773  MEMB      74              0.0000000000
      8325        74  OSM       H8G            35.5290183315      -21.5884108190        8.8810035356  MEMB      74              0.0000000000
      8326        74  OSM       C9F            34.8454402445      -23.5515185553        9.2528378432  MEMB      74              0.0000000000
      8327        74  OSM       H9F            35.8667745458      -23.9106792507        9.1027338376  MEMB      74              0.0000000000
      8328        74  OSM       C10F           34.0026754545      -24.5984179767        8.8714398097  MEMB      74              0.0000000000
      8329        74  OSM       H10F           34.6397977289      -25.4643096485        8.6519621031  MEMB      74              0.0000000000
      8330        74  OSM       C11F           32.5744656531      -25.1929611875        8.6131337836  MEMB      74              0.0000000000
      8331        74  OSM       H11F           32.4946910351      -25.6979663665        9.5839414974  MEMB      74              0.0000000000
      8332        74  OSM       H11G           32.6905493086      -26.0881564719        7.9470157714  MEMB      74              0.0000000000
      8333        74  OSM       C12F           31.0075852486      -24.8527635425        8.4788259611  MEMB      74              0.0000000000
      8334        74  OSM       H12F           30.6441888147      -23.9722712926        9.0003953317  MEMB      74              0.0000000000
      8335        74  OSM       H12G           30.5106891134      -25.6448948616        9.0879722913  MEMB      74              0.0000000000
      8336        74  OSM       C13F           30.3331800285      -24.9934063782        7.0785919658  MEMB      74              0.0000000000
      8337        74  OSM       H13F           30.0359555133      -26.0637769648        7.0165499627  MEMB      74              0.0000000000
      8338        74  OSM       H13G           31.1159887717      -24.8160179050        6.3252954120  MEMB      74              0.0000000000
      8339        74  OSM       C14F           29.0859113067      -24.1069301728        6.7393442772  MEMB      74              0.0000000000
      8340        74  OSM       H14F           29.3410664956      -23.0322571379        6.7516228212  MEMB      74              0.0000000000
      8341        74  OSM       H14G           28.3166616796      -24.2596266470        7.5247631093  MEMB      74              0.0000000000
      8342        74  OSM       C15F           28.4476084691      -24.2983615872        5.3298789301  MEMB      74              0.0000000000
      8343        74  OSM       H15F           27.6629800682      -23.5143476555        5.1901918442  MEMB      74              0.0000000000
      8344        74  OSM       H15G           27.9412362802      -25.2845077630        5.3008459162  MEMB      74              0.0000000000
      8345        74  OSM       C16F           29.4639608534      -24.1725246152        4.1733669225  MEMB      74              0.0000000000
      8346        74  OSM       H16F           30.4041840490      -24.6799926617        4.4760987006  MEMB      74              0.0000000000
      8347        74  OSM       H16G           29.7130041845      -23.0995552537        4.0060975758  MEMB      74              0.0000000000
      8348        74  OSM       C17F           29.1221184129      -24.8280585316        2.8239944940  MEMB      74              0.0000000000
      8349        74  OSM       H17F           28.3067147755      -24.2886626077        2.2967468093  MEMB      74              0.0000000000
      8350        74  OSM       H17G           28.7744199191      -25.8740362311        2.9834386312  MEMB      74              0.0000000000
      8351        74  OSM       C18F           30.3822860605      -24.8357311123        1.9481355787  MEMB      74              0.0000000000
      8352        74  OSM       H18F           30.1922317470      -25.2476893533        0.9357520209  MEMB      74              0.0000000000
      8353        74  OSM       H18G           31.1750880200      -25.4441938989        2.4383736967  MEMB      74              0.0000000000
      8354        74  OSM       H18H           30.7782157655      -23.8013375276        1.8428793900  MEMB      74              0.0000000000
      8355        75  SOPE      N             -36.8322910605       -1.5911206054       22.6844729793  MEMB      75              0.0000000000
      8356        75  SOPE      HN1           -37.6330239734       -1.7531887843       23.3218387019  MEMB      75              0.0000000000
      8357        75  SOPE      HN2           -37.0384448728       -1.9863539506       21.7489134183  MEMB      75              0.0000000000
      8358        75  SOPE      HN3           -35.9740253955       -2.0343341437       23.0847813282  MEMB      75              0.0000000000
      8359        75  SOPE      C12           -36.5922913376       -0.1136030522       22.5367830748  MEMB      75              0.0000000000
      8360        75  SOPE      H12A          -35.8522853702        0.0240795854       21.7226195974  MEMB      75              0.0000000000
      8361        75  SOPE      H12B          -36.1533483385        0.2567890105       23.4754059639  MEMB      75              0.0000000000
      8362        75  SOPE      C11           -37.8636008960        0.6821291706       22.2603558507  MEMB      75              0.0000000000
      8363        75  SOPE      H11A          -37.7643681192        1.6951523360       22.7267537199  MEMB      75              0.0000000000
      8364        75  SOPE      H11B          -38.7374971059        0.2059907854       22.7557334724  MEMB      75              0.0000000000
      8365        75  SOPE      P             -37.4894706839        1.9652958107       19.9867219548  MEMB      75              0.0000000000
      8366        75  SOPE      O13           -36.5111190432        2.7067233806       20.8339236135  MEMB      75              0.0000000000
      8367        75  SOPE      O14           -38.6471439113        2.6770871854       19.4233388369  MEMB      75              0.0000000000
      8368        75  SOPE      O12           -38.0795313973        0.7557235705       20.8585752072  MEMB      75              0.0000000000
      8369        75  SOPE      O11           -36.7094139065        1.1870485888       18.8367834644  MEMB      75              0.0000000000
      8370        75  SOPE      C1            -36.7862620249       -0.2363288965       18.6512237131  MEMB      75              0.0000000000
      8371        75  SOPE      HA            -37.7811325850       -0.6470391068       18.9364972825  MEMB      75              0.0000000000
      8372        75  SOPE      HB            -36.0140140053       -0.7092668749       19.2979946464  MEMB      75              0.0000000000
      8373        75  SOPE      C2            -36.4666474398       -0.7671890410       17.2024084441  MEMB      75              0.0000000000
      8374        75  SOPE      HS            -36.2819640444       -1.8596856693       17.2841235386  MEMB      75              0.0000000000
      8375        75  SOPE      O21           -35.2727611964       -0.0958362478       16.7408688594  MEMB      75              0.0000000000
      8376        75  SOPE      C21           -34.6579466114       -0.6392022985       15.6921267390  MEMB      75              0.0000000000
      8377        75  SOPE      O22           -35.0849253849       -1.5541122143       15.0235316046  MEMB      75              0.0000000000
      8378        75  SOPE      C22           -33.2740223247        0.0076195776       15.5685408209  MEMB      75              0.0000000000
      8379        75  SOPE      H2R           -32.7979237162       -0.0880373434       16.5653426123  MEMB      75              0.0000000000
      8380        75  SOPE      H2S           -33.4242881269        1.0811597543       15.3594870338  MEMB      75              0.0000000000
      8381        75  SOPE      C3            -37.6665092739       -0.5868426118       16.1998740892  MEMB      75              0.0000000000
      8382        75  SOPE      HX            -38.5304949586       -1.1443050972       16.6272917921  MEMB      75              0.0000000000
      8383        75  SOPE      HY            -37.4287415815       -1.0786974436       15.2343547835  MEMB      75              0.0000000000
      8384        75  SOPE      O31           -38.0682255318        0.7739944936       16.0449338161  MEMB      75              0.0000000000
      8385        75  SOPE      C31           -38.0264038772        1.3236213711       14.8512864408  MEMB      75              0.0000000000
      8386        75  SOPE      O32           -37.8390574690        0.7642905433       13.7868254419  MEMB      75              0.0000000000
      8387        75  SOPE      C32           -38.1739265141        2.8212490010       15.0271052812  MEMB      75              0.0000000000
      8388        75  SOPE      H2X           -38.3562197895        3.0759552987       16.0941006583  MEMB      75              0.0000000000
      8389        75  SOPE      H2Y           -39.0537643108        3.1371927180       14.4304462407  MEMB      75              0.0000000000
      8390        75  SOPE      C23           -32.3668023454       -0.6433556903       14.4971685396  MEMB      75              0.0000000000
      8391        75  SOPE      H3R           -32.1708004235       -1.7012031156       14.7625798304  MEMB      75              0.0000000000
      8392        75  SOPE      H3S           -31.3831368697       -0.1222824864       14.4947657292  MEMB      75              0.0000000000
      8393        75  SOPE      C24           -32.9596080046       -0.5336577608       13.0894943911  MEMB      75              0.0000000000
      8394        75  SOPE      H4R           -33.9555415242       -1.0259836314       13.0195825423  MEMB      75              0.0000000000
      8395        75  SOPE      H4S           -33.1316770295        0.5481532515       12.9066640139  MEMB      75              0.0000000000
      8396        75  SOPE      C25           -32.0971418529       -1.0700925570       11.9344656053  MEMB      75              0.0000000000
      8397        75  SOPE      H5R           -31.0237596413       -0.8499088301       12.1168214151  MEMB      75              0.0000000000
      8398        75  SOPE      H5S           -32.2105553805       -2.1701058487       11.8514819460  MEMB      75              0.0000000000
      8399        75  SOPE      C26           -32.5560775617       -0.3564782973       10.6566641957  MEMB      75              0.0000000000
      8400        75  SOPE      H6R           -33.6087682341       -0.0375889767       10.8427274180  MEMB      75              0.0000000000
      8401        75  SOPE      H6S           -31.9329365389        0.5589724047       10.5372441662  MEMB      75              0.0000000000
      8402        75  SOPE      C27           -32.5957433718       -1.1178449214        9.3229622286  MEMB      75              0.0000000000
      8403        75  SOPE      H7R           -32.3461445293       -0.4281266941        8.4853710938  MEMB      75              0.0000000000
      8404        75  SOPE      H7S           -31.8020336805       -1.8880563919        9.3499519244  MEMB      75              0.0000000000
      8405        75  SOPE      C28           -33.9849142981       -1.7379432159        9.0010425979  MEMB      75              0.0000000000
      8406        75  SOPE      H8R           -33.7795298061       -2.5511567720        8.2781530517  MEMB      75              0.0000000000
      8407        75  SOPE      H8S           -34.3461888216       -2.1806628151        9.9399185481  MEMB      75              0.0000000000
      8408        75  SOPE      C29           -35.1532793393       -0.9036513118        8.5439240459  MEMB      75              0.0000000000
      8409        75  SOPE      H91           -35.4797579946       -0.1634176838        9.2930761288  MEMB      75              0.0000000000
      8410        75  SOPE      C210          -35.9134003491       -1.0672555850        7.4426685195  MEMB      75              0.0000000000
      8411        75  SOPE      H101          -36.7480736282       -0.3692836293        7.2683213948  MEMB      75              0.0000000000
      8412        75  SOPE      C211          -35.7607937052       -2.1490697177        6.4042560747  MEMB      75              0.0000000000
      8413        75  SOPE      H11R          -36.7612320184       -2.5016770488        6.0713741431  MEMB      75              0.0000000000
      8414        75  SOPE      H11S          -35.2625118400       -3.0344409195        6.8495570037  MEMB      75              0.0000000000
      8415        75  SOPE      C212          -34.9178237883       -1.8195828365        5.1681103564  MEMB      75              0.0000000000
      8416        75  SOPE      H12R          -34.6773890520       -2.8015143746        4.6904910368  MEMB      75              0.0000000000
      8417        75  SOPE      H12S          -33.9581451469       -1.3367261499        5.4547591186  MEMB      75              0.0000000000
      8418        75  SOPE      C213          -35.6147139516       -0.9947119168        4.0949009096  MEMB      75              0.0000000000
      8419        75  SOPE      H13R          -35.6930195483        0.0753733778        4.3872300160  MEMB      75              0.0000000000
      8420        75  SOPE      H13S          -36.6470517158       -1.3807607680        3.9282423299  MEMB      75              0.0000000000
      8421        75  SOPE      C214          -34.8683246186       -1.1170502189        2.7628139513  MEMB      75              0.0000000000
      8422        75  SOPE      H14R          -35.6000818532       -0.6817469742        2.0471445441  MEMB      75              0.0000000000
      8423        75  SOPE      H14S          -34.7271428382       -2.1865232416        2.5045410838  MEMB      75              0.0000000000
      8424        75  SOPE      C215          -33.5385337059       -0.3273855724        2.7404669743  MEMB      75              0.0000000000
      8425        75  SOPE      H15R          -32.7787462826       -0.6109257059        3.4705041713  MEMB      75              0.0000000000
      8426        75  SOPE      H15S          -33.8440843198        0.6192888040        3.1803527862  MEMB      75              0.0000000000
      8427        75  SOPE      C216          -32.8650640060       -0.0531739499        1.3808731477  MEMB      75              0.0000000000
      8428        75  SOPE      H16R          -31.9637683986       -0.6755391769        1.2198412637  MEMB      75              0.0000000000
      8429        75  SOPE      H16S          -32.4998252955        0.9920771689        1.2948080856  MEMB      75              0.0000000000
      8430        75  SOPE      C217          -33.7487943932       -0.3863398915        0.2221537603  MEMB      75              0.0000000000
      8431        75  SOPE      H17R          -33.4321040807        0.2047893961       -0.6595011509  MEMB      75              0.0000000000
      8432        75  SOPE      H17S          -34.8352224773       -0.1846808874        0.3440911517  MEMB      75              0.0000000000
      8433        75  SOPE      C218          -33.4783608901       -1.8292416726       -0.0722708930  MEMB      75              0.0000000000
      8434        75  SOPE      H18R          -33.9316669150       -1.9133450764       -1.0272487638  MEMB      75              0.0000000000
      8435        75  SOPE      H18S          -33.9140876540       -2.5347818651        0.6617734626  MEMB      75              0.0000000000
      8436        75  SOPE      H18T          -32.4083652889       -2.0538819323       -0.2271989074  MEMB      75              0.0000000000
      8437        75  SOPE      C33           -36.8567841361        3.4241174781       14.5146907682  MEMB      75              0.0000000000
      8438        75  SOPE      H3X           -36.8781762279        4.5035922942       14.3044586009  MEMB      75              0.0000000000
      8439        75  SOPE      H3Y           -36.6168013065        2.9609738421       13.5341411646  MEMB      75              0.0000000000
      8440        75  SOPE      C34           -35.7339354379        3.3084152863       15.5391075800  MEMB      75              0.0000000000
      8441        75  SOPE      H4X           -35.6445289967        2.2539798957       15.8755881465  MEMB      75              0.0000000000
      8442        75  SOPE      H4Y           -35.9981356946        3.9134213184       16.4372023689  MEMB      75              0.0000000000
      8443        75  SOPE      C35           -34.4086105877        3.7852920301       14.9383102125  MEMB      75              0.0000000000
      8444        75  SOPE      H5X           -33.6229260308        3.6483793925       15.7124426477  MEMB      75              0.0000000000
      8445        75  SOPE      H5Y           -34.4637864339        4.8670080716       14.6876342112  MEMB      75              0.0000000000
      8446        75  SOPE      C36           -34.0484327295        2.9682461030       13.6907757704  MEMB      75              0.0000000000
      8447        75  SOPE      H6X           -34.6473800516        2.0270387591       13.7125959908  MEMB      75              0.0000000000
      8448        75  SOPE      H6Y           -32.9803126628        2.6732024988       13.7452259910  MEMB      75              0.0000000000
      8449        75  SOPE      C37           -34.2962949162        3.6403495610       12.3315435012  MEMB      75              0.0000000000
      8450        75  SOPE      H7X           -33.5398011867        4.4366431086       12.1902592845  MEMB      75              0.0000000000
      8451        75  SOPE      H7Y           -35.2935012091        4.1273786550       12.2894452840  MEMB      75              0.0000000000
      8452        75  SOPE      C38           -34.1919088325        2.5785093184       11.2271394027  MEMB      75              0.0000000000
      8453        75  SOPE      H8X           -34.9939494229        1.8208153736       11.3809253188  MEMB      75              0.0000000000
      8454        75  SOPE      H8Y           -33.2049812957        2.0886156633       11.3557851981  MEMB      75              0.0000000000
      8455        75  SOPE      C39           -34.2616912396        3.1079290754        9.7927964490  MEMB      75              0.0000000000
      8456        75  SOPE      H9X           -33.4261181375        3.8297994169        9.6694176501  MEMB      75              0.0000000000
      8457        75  SOPE      H9Y           -35.2450489684        3.6132894706        9.6693365827  MEMB      75              0.0000000000
      8458        75  SOPE      C310          -34.1584833440        2.0294338382        8.7086434762  MEMB      75              0.0000000000
      8459        75  SOPE      H10X          -35.1785687081        1.7078999749        8.4055289477  MEMB      75              0.0000000000
      8460        75  SOPE      H10Y          -33.6607628910        1.1793893636        9.1847389734  MEMB      75              0.0000000000
      8461        75  SOPE      C311          -33.3097940054        2.3182731012        7.4622227129  MEMB      75              0.0000000000
      8462        75  SOPE      H11X          -32.7315211028        1.4038491162        7.1841134114  MEMB      75              0.0000000000
      8463        75  SOPE      H11Y          -32.5706686192        3.1165064504        7.6829394049  MEMB      75              0.0000000000
      8464        75  SOPE      C312          -34.1826493915        2.6498792077        6.2540226089  MEMB      75              0.0000000000
      8465        75  SOPE      H12X          -35.1049215508        3.1758909524        6.5908025062  MEMB      75              0.0000000000
      8466        75  SOPE      H12Y          -34.5235490616        1.6975989534        5.7865127108  MEMB      75              0.0000000000
      8467        75  SOPE      C313          -33.4732646282        3.5426486934        5.2349771981  MEMB      75              0.0000000000
      8468        75  SOPE      H13X          -32.4365397592        3.8029707458        5.5217916722  MEMB      75              0.0000000000
      8469        75  SOPE      H13Y          -34.0367241417        4.4926621235        5.1976489147  MEMB      75              0.0000000000
      8470        75  SOPE      C314          -33.5146410481        2.9638437038        3.8313609702  MEMB      75              0.0000000000
      8471        75  SOPE      H14X          -34.4622013697        2.3836035646        3.7928044972  MEMB      75              0.0000000000
      8472        75  SOPE      H14Y          -32.6802141962        2.2607274048        3.6855215634  MEMB      75              0.0000000000
      8473        75  SOPE      C315          -33.6205739313        4.0720920330        2.7833396176  MEMB      75              0.0000000000
      8474        75  SOPE      H15X          -32.7246104165        4.7292343196        2.7935526607  MEMB      75              0.0000000000
      8475        75  SOPE      H15Y          -34.4687173546        4.6570566530        3.1754441181  MEMB      75              0.0000000000
      8476        75  SOPE      C316          -34.0399371682        3.6796232554        1.3566174836  MEMB      75              0.0000000000
      8477        75  SOPE      H16X          -33.1213262962        3.4556444277        0.7612321395  MEMB      75              0.0000000000
      8478        75  SOPE      H16Y          -34.5330382387        4.5462999935        0.8745315509  MEMB      75              0.0000000000
      8479        75  SOPE      C317          -34.9505186273        2.4435574871        1.2677107197  MEMB      75              0.0000000000
      8480        75  SOPE      H17X          -34.4157011513        1.6981067295        1.8135181696  MEMB      75              0.0000000000
      8481        75  SOPE      H17Y          -34.8810427891        2.0264410424        0.2591246320  MEMB      75              0.0000000000
      8482        75  SOPE      C318          -36.3811539235        2.3925577664        1.8324765249  MEMB      75              0.0000000000
      8483        75  SOPE      H18X          -36.8083746395        1.3718400035        1.7180725596  MEMB      75              0.0000000000
      8484        75  SOPE      H18Y          -37.0489799354        3.1026611302        1.3066632466  MEMB      75              0.0000000000
      8485        75  SOPE      H18Z          -36.3862606044        2.6346515961        2.9165708022  MEMB      75              0.0000000000
      8486        76  SLPC      N             -17.0683458538      -30.6084237800       18.2265535082  MEMB      76              0.0000000000
      8487        76  SLPC      C13           -16.3892736087      -31.9444238376       18.2922172814  MEMB      76              0.0000000000
      8488        76  SLPC      H13A          -15.5098043647      -31.9711010247       17.6694456317  MEMB      76              0.0000000000
      8489        76  SLPC      H13B          -16.0577121526      -32.1594466270       19.3078816926  MEMB      76              0.0000000000
      8490        76  SLPC      H13C          -17.0822353535      -32.7289408292       17.9879012097  MEMB      76              0.0000000000
      8491        76  SLPC      C14           -16.0208550675      -29.5616032937       18.3854119380  MEMB      76              0.0000000000
      8492        76  SLPC      H14A          -15.3627525203      -29.7821099255       19.2338559098  MEMB      76              0.0000000000
      8493        76  SLPC      H14B          -15.2949748809      -29.5310670727       17.5718754037  MEMB      76              0.0000000000
      8494        76  SLPC      H14C          -16.4215119600      -28.5728991800       18.5345334241  MEMB      76              0.0000000000
      8495        76  SLPC      C15           -18.0464423874      -30.5922504570       19.3643378130  MEMB      76              0.0000000000
      8496        76  SLPC      H15A          -17.5578681906      -30.7791047705       20.3087878033  MEMB      76              0.0000000000
      8497        76  SLPC      H15B          -18.6169226478      -29.6754492395       19.3994888145  MEMB      76              0.0000000000
      8498        76  SLPC      H15C          -18.7834478942      -31.3861889570       19.1853677210  MEMB      76              0.0000000000
      8499        76  SLPC      C12           -17.7990344583      -30.4375706789       16.8981175306  MEMB      76              0.0000000000
      8500        76  SLPC      H12A          -17.4298790562      -31.2122850672       16.2238364486  MEMB      76              0.0000000000
      8501        76  SLPC      H12B          -17.5627144369      -29.4832414194       16.4519087378  MEMB      76              0.0000000000
      8502        76  SLPC      C11           -19.3373224942      -30.6216807125       16.8800963239  MEMB      76              0.0000000000
      8503        76  SLPC      H11A          -19.7256925203      -30.4375432433       15.8473279748  MEMB      76              0.0000000000
      8504        76  SLPC      H11B          -19.8320768692      -29.8585402379       17.5205956599  MEMB      76              0.0000000000
      8505        76  SLPC      P             -19.6027917466      -33.1741463316       16.3737271589  MEMB      76              0.0000000000
      8506        76  SLPC      O13           -19.4643515811      -34.3922045824       17.2051255335  MEMB      76              0.0000000000
      8507        76  SLPC      O14           -20.6900248045      -33.1114896829       15.3910700220  MEMB      76              0.0000000000
      8508        76  SLPC      O12           -19.6747151822      -31.9260746980       17.3470562896  MEMB      76              0.0000000000
      8509        76  SLPC      O11           -18.2634612061      -32.8177610002       15.6416143125  MEMB      76              0.0000000000
      8510        76  SLPC      C1            -17.5666711924      -33.7215948959       14.8212808394  MEMB      76              0.0000000000
      8511        76  SLPC      HA            -17.4004443116      -34.6751592428       15.3792966690  MEMB      76              0.0000000000
      8512        76  SLPC      HB            -18.1173131530      -33.9860534149       13.9003954449  MEMB      76              0.0000000000
      8513        76  SLPC      C2            -16.2209394286      -33.0306597106       14.5190034665  MEMB      76              0.0000000000
      8514        76  SLPC      HS            -16.1101173631      -32.2037245619       15.2564150788  MEMB      76              0.0000000000
      8515        76  SLPC      O21           -16.1049168758      -32.5707421480       13.1328156386  MEMB      76              0.0000000000
      8516        76  SLPC      C21           -15.7674598221      -31.2780422471       12.9560809682  MEMB      76              0.0000000000
      8517        76  SLPC      O22           -15.5794907427      -30.4923447285       13.8673836987  MEMB      76              0.0000000000
      8518        76  SLPC      C22           -15.7055494055      -30.8952233473       11.4296360681  MEMB      76              0.0000000000
      8519        76  SLPC      H2R           -16.0763058602      -31.7401360403       10.8409909701  MEMB      76              0.0000000000
      8520        76  SLPC      H2S           -16.5516670356      -30.1754038345       11.3691175103  MEMB      76              0.0000000000
      8521        76  SLPC      C3            -15.1377264378      -34.0590795659       14.8775400376  MEMB      76              0.0000000000
      8522        76  SLPC      HX            -15.3061593646      -34.4228739034       15.9189226218  MEMB      76              0.0000000000
      8523        76  SLPC      HY            -14.1727290066      -33.5207675993       14.8669747558  MEMB      76              0.0000000000
      8524        76  SLPC      O31           -15.2457479306      -35.1318168190       13.9345440926  MEMB      76              0.0000000000
      8525        76  SLPC      C31           -14.2343385234      -35.9594897436       13.8512174432  MEMB      76              0.0000000000
      8526        76  SLPC      O32           -13.2700473132      -35.9798895661       14.5926181816  MEMB      76              0.0000000000
      8527        76  SLPC      C32           -14.4026257378      -36.8033835259       12.5897959713  MEMB      76              0.0000000000
      8528        76  SLPC      H2X           -13.4303585985      -37.2750424072       12.3559380760  MEMB      76              0.0000000000
      8529        76  SLPC      H2Y           -14.6307632887      -36.1308703782       11.7434846530  MEMB      76              0.0000000000
      8530        76  SLPC      C23           -14.5266306338      -30.0596538495       10.7175286382  MEMB      76              0.0000000000
      8531        76  SLPC      H3R           -14.3080056693      -29.2072222605       11.3855486440  MEMB      76              0.0000000000
      8532        76  SLPC      H3S           -15.0519004275      -29.6571476335        9.8157386685  MEMB      76              0.0000000000
      8533        76  SLPC      C24           -13.1514238703      -30.5219936313       10.0499905379  MEMB      76              0.0000000000
      8534        76  SLPC      H4R           -12.3635939094      -30.8132548950       10.7240560583  MEMB      76              0.0000000000
      8535        76  SLPC      H4S           -12.7357103350      -29.5481820276        9.6851496725  MEMB      76              0.0000000000
      8536        76  SLPC      C25           -13.1839246624      -31.4153388546        8.7572673547  MEMB      76              0.0000000000
      8537        76  SLPC      H5R           -13.0268629554      -30.6307729550        7.9771320638  MEMB      76              0.0000000000
      8538        76  SLPC      H5S           -14.2589001931      -31.6109302444        8.6246035990  MEMB      76              0.0000000000
      8539        76  SLPC      C26           -12.1321790666      -32.6033837567        8.3307787878  MEMB      76              0.0000000000
      8540        76  SLPC      H6R           -11.1664009507      -32.1811298469        8.6071667822  MEMB      76              0.0000000000
      8541        76  SLPC      H6S           -12.2182397958      -32.5391590982        7.2242501372  MEMB      76              0.0000000000
      8542        76  SLPC      C27           -11.8371242234      -34.2312714768        8.4712251661  MEMB      76              0.0000000000
      8543        76  SLPC      H7R           -11.0525471577      -34.3204229195        9.2692780188  MEMB      76              0.0000000000
      8544        76  SLPC      H7S           -11.1879548000      -34.4547546434        7.6107328528  MEMB      76              0.0000000000
      8545        76  SLPC      C28           -12.7275669605      -35.6165816913        8.7218789246  MEMB      76              0.0000000000
      8546        76  SLPC      H8R           -12.8744353406      -35.7732209430        9.7951690386  MEMB      76              0.0000000000
      8547        76  SLPC      H8S           -11.7790266475      -36.1721192045        8.5784906149  MEMB      76              0.0000000000
      8548        76  SLPC      C29           -13.5823161925      -36.7403444940        8.0292056365  MEMB      76              0.0000000000
      8549        76  SLPC      H9R           -12.8655578492      -37.5334212630        7.8157769253  MEMB      76              0.0000000000
      8550        76  SLPC      C210          -14.8402008497      -37.1411740328        7.5564560088  MEMB      76              0.0000000000
      8551        76  SLPC      H10R          -14.7708188662      -38.1204840727        7.1017344366  MEMB      76              0.0000000000
      8552        76  SLPC      C211          -16.3213490126      -36.6995176516        7.3910126609  MEMB      76              0.0000000000
      8553        76  SLPC      H11R          -16.6376288440      -36.3602721373        8.3885518233  MEMB      76              0.0000000000
      8554        76  SLPC      H11S          -16.9455850138      -37.6291260976        7.2820294921  MEMB      76              0.0000000000
      8555        76  SLPC      C212          -16.9140067267      -35.5950267897        6.5133978962  MEMB      76              0.0000000000
      8556        76  SLPC      H12R          -17.3495366638      -34.8249322396        7.1658569407  MEMB      76              0.0000000000
      8557        76  SLPC      C213          -17.0336245615      -35.3138955381        5.1847901123  MEMB      76              0.0000000000
      8558        76  SLPC      H13R          -17.6277385135      -34.4198555128        4.9257418912  MEMB      76              0.0000000000
      8559        76  SLPC      C214          -16.5793755326      -36.0292746102        3.9346041583  MEMB      76              0.0000000000
      8560        76  SLPC      H14R          -17.1114742434      -35.5807953532        3.0601352020  MEMB      76              0.0000000000
      8561        76  SLPC      H14S          -16.9275319934      -37.0742275220        3.9548238122  MEMB      76              0.0000000000
      8562        76  SLPC      C215          -15.1304919376      -36.1233279424        3.4794909295  MEMB      76              0.0000000000
      8563        76  SLPC      H15R          -15.1719255660      -36.9368893722        2.7166934111  MEMB      76              0.0000000000
      8564        76  SLPC      H15S          -14.4186640254      -36.5127401810        4.2297838024  MEMB      76              0.0000000000
      8565        76  SLPC      C216          -14.6303621920      -34.8719568760        2.7425813742  MEMB      76              0.0000000000
      8566        76  SLPC      H16R          -14.0749331987      -34.2004866540        3.4066958421  MEMB      76              0.0000000000
      8567        76  SLPC      H16S          -15.4909657984      -34.3040211373        2.3212833173  MEMB      76              0.0000000000
      8568        76  SLPC      C217          -13.7106429315      -35.3415580869        1.6355646086  MEMB      76              0.0000000000
      8569        76  SLPC      H17R          -14.2763554692      -35.3753717030        0.6755102660  MEMB      76              0.0000000000
      8570        76  SLPC      H17S          -13.4490576136      -36.3606869134        2.0048184966  MEMB      76              0.0000000000
      8571        76  SLPC      C218          -12.3311212075      -34.7708379516        1.3931256352  MEMB      76              0.0000000000
      8572        76  SLPC      H18R          -11.7858566716      -35.4538743215        0.7041629543  MEMB      76              0.0000000000
      8573        76  SLPC      H18S          -11.7288585060      -34.6779483575        2.3193149380  MEMB      76              0.0000000000
      8574        76  SLPC      H18T          -12.4049918110      -33.8085636548        0.8768873985  MEMB      76              0.0000000000
      8575        76  SLPC      C33           -15.4629458705      -37.9073129488       12.7520612102  MEMB      76              0.0000000000
      8576        76  SLPC      H3X           -15.3069934700      -38.4248670343       13.7248589075  MEMB      76              0.0000000000
      8577        76  SLPC      H3Y           -15.3084120972      -38.6553240546       11.9393416530  MEMB      76              0.0000000000
      8578        76  SLPC      C34           -16.9252207025      -37.4494430786       12.6594928075  MEMB      76              0.0000000000
      8579        76  SLPC      H4X           -17.2119148271      -36.9159668094       13.5941575443  MEMB      76              0.0000000000
      8580        76  SLPC      H4Y           -17.5601224917      -38.3589376054       12.5891696801  MEMB      76              0.0000000000
      8581        76  SLPC      C35           -17.2021234024      -36.5151811186       11.4758460309  MEMB      76              0.0000000000
      8582        76  SLPC      H5X           -16.8547415989      -36.9830026990       10.5305214335  MEMB      76              0.0000000000
      8583        76  SLPC      H5Y           -16.6128651684      -35.5869776479       11.6430546308  MEMB      76              0.0000000000
      8584        76  SLPC      C36           -18.6751764352      -36.1209706520       11.3440181919  MEMB      76              0.0000000000
      8585        76  SLPC      H6X           -19.0621554907      -35.8539203150       12.3528533245  MEMB      76              0.0000000000
      8586        76  SLPC      H6Y           -19.2610523338      -36.9875653061       10.9686694217  MEMB      76              0.0000000000
      8587        76  SLPC      C37           -18.8925124682      -34.9013800880       10.4445028331  MEMB      76              0.0000000000
      8588        76  SLPC      H7X           -19.9773737380      -34.8179987298       10.2099409674  MEMB      76              0.0000000000
      8589        76  SLPC      H7Y           -18.3267078629      -35.0253236370        9.4961481672  MEMB      76              0.0000000000
      8590        76  SLPC      C38           -18.4914175980      -33.6306857603       11.1981010009  MEMB      76              0.0000000000
      8591        76  SLPC      H8X           -17.3946152431      -33.6475218118       11.3780998487  MEMB      76              0.0000000000
      8592        76  SLPC      H8Y           -19.0081693743      -33.6378753259       12.1831759877  MEMB      76              0.0000000000
      8593        76  SLPC      C39           -18.8985069942      -32.3271241283       10.5246915587  MEMB      76              0.0000000000
      8594        76  SLPC      H9X           -18.5303949136      -31.4876860215       11.1594329259  MEMB      76              0.0000000000
      8595        76  SLPC      H9Y           -20.0055962126      -32.2568750755       10.4638886619  MEMB      76              0.0000000000
      8596        76  SLPC      C310          -18.3116815226      -32.1804257186        9.1314837772  MEMB      76              0.0000000000
      8597        76  SLPC      H10X          -18.7673173759      -32.9001507605        8.4155609980  MEMB      76              0.0000000000
      8598        76  SLPC      H10Y          -17.2325451275      -32.3803931602        9.2115596988  MEMB      76              0.0000000000
      8599        76  SLPC      C311          -18.3792849082      -30.7432809120        8.6447125236  MEMB      76              0.0000000000
      8600        76  SLPC      H11X          -17.6142967093      -30.1727480738        9.2218856418  MEMB      76              0.0000000000
      8601        76  SLPC      H11Y          -19.3911246062      -30.3418879315        8.8690962376  MEMB      76              0.0000000000
      8602        76  SLPC      C312          -18.0761589684      -30.6068974143        7.1575635571  MEMB      76              0.0000000000
      8603        76  SLPC      H12X          -18.3073812878      -29.5686358029        6.8332242052  MEMB      76              0.0000000000
      8604        76  SLPC      H12Y          -18.7349521613      -31.3094342876        6.5980139729  MEMB      76              0.0000000000
      8605        76  SLPC      C313          -16.6254673047      -30.9401649441        6.8171223069  MEMB      76              0.0000000000
      8606        76  SLPC      H13X          -16.4255216353      -31.9655932802        7.1830678362  MEMB      76              0.0000000000
      8607        76  SLPC      H13Y          -15.9154190273      -30.2587395161        7.3358038548  MEMB      76              0.0000000000
      8608        76  SLPC      C314          -16.3865948222      -30.9074352770        5.3125214232  MEMB      76              0.0000000000
      8609        76  SLPC      H14X          -16.7747362118      -29.9554327610        4.8851449053  MEMB      76              0.0000000000
      8610        76  SLPC      H14Y          -16.9555939071      -31.7400929757        4.8389640670  MEMB      76              0.0000000000
      8611        76  SLPC      C315          -14.9080461597      -31.0237903321        4.9656407274  MEMB      76              0.0000000000
      8612        76  SLPC      H15X          -14.3769613435      -31.7585794073        5.5789356063  MEMB      76              0.0000000000
      8613        76  SLPC      H15Y          -14.4011650713      -30.0542642496        5.1648125811  MEMB      76              0.0000000000
      8614        76  SLPC      C316          -14.7035832774      -31.4821950996        3.5310643045  MEMB      76              0.0000000000
      8615        76  SLPC      H16X          -15.3751715146      -30.9160817788        2.8583913513  MEMB      76              0.0000000000
      8616        76  SLPC      H16Y          -15.0426487527      -32.5268459622        3.4440921958  MEMB      76              0.0000000000
      8617        76  SLPC      C317          -13.2367936881      -31.3143388663        3.1448275306  MEMB      76              0.0000000000
      8618        76  SLPC      H17X          -12.6098768584      -31.9783223108        3.7835697518  MEMB      76              0.0000000000
      8619        76  SLPC      H17Y          -12.9299737718      -30.2626509425        3.3465309443  MEMB      76              0.0000000000
      8620        76  SLPC      C318          -12.9786755391      -31.5994981831        1.6856516222  MEMB      76              0.0000000000
      8621        76  SLPC      H18X          -11.9507678744      -31.9551426322        1.4987555511  MEMB      76              0.0000000000
      8622        76  SLPC      H18Y          -13.0764053417      -30.6891343258        1.0727038182  MEMB      76              0.0000000000
      8623        76  SLPC      H18Z          -13.7023642864      -32.3606149289        1.3142706084  MEMB      76              0.0000000000
      8624        77  SAPE      N             -35.1704924181       16.3933903544       19.5172635721  MEMB      77              0.0000000000
      8625        77  SAPE      HN1           -35.0256936071       15.5355919246       18.9545472875  MEMB      77              0.0000000000
      8626        77  SAPE      HN2           -36.1851812167       16.4243490980       19.8219705215  MEMB      77              0.0000000000
      8627        77  SAPE      HN3           -35.0476894107       17.2139993017       18.8714623110  MEMB      77              0.0000000000
      8628        77  SAPE      C12           -34.1658395269       16.5707916621       20.6201709993  MEMB      77              0.0000000000
      8629        77  SAPE      H12A          -34.5238476946       16.0346065870       21.5205626575  MEMB      77              0.0000000000
      8630        77  SAPE      H12B          -34.1207248365       17.6586770645       20.8434063655  MEMB      77              0.0000000000
      8631        77  SAPE      C11           -32.7739386509       16.0753032901       20.1949601828  MEMB      77              0.0000000000
      8632        77  SAPE      H11A          -32.5291399880       16.3840536611       19.1523350972  MEMB      77              0.0000000000
      8633        77  SAPE      H11B          -32.7645803106       14.9618848875       20.1968445274  MEMB      77              0.0000000000
      8634        77  SAPE      P             -31.0172847170       17.9000399016       20.9407677916  MEMB      77              0.0000000000
      8635        77  SAPE      O13           -31.7829825022       19.0349105699       21.5220060496  MEMB      77              0.0000000000
      8636        77  SAPE      O14           -29.6186206006       17.7080897681       21.3907417255  MEMB      77              0.0000000000
      8637        77  SAPE      O12           -31.7984929154       16.5360260792       21.1205819982  MEMB      77              0.0000000000
      8638        77  SAPE      O11           -30.9880082957       18.1091146839       19.3799760087  MEMB      77              0.0000000000
      8639        77  SAPE      C1            -31.8311077228       19.0972815757       18.7865524983  MEMB      77              0.0000000000
      8640        77  SAPE      HA            -32.8607046917       19.0884174866       19.2065574726  MEMB      77              0.0000000000
      8641        77  SAPE      HB            -31.4288493209       20.1181892539       18.9823141421  MEMB      77              0.0000000000
      8642        77  SAPE      C2            -31.8541592512       18.9537960723       17.2374281494  MEMB      77              0.0000000000
      8643        77  SAPE      HS            -32.4673907094       19.7997749211       16.8629984771  MEMB      77              0.0000000000
      8644        77  SAPE      O21           -32.3987107568       17.7268104474       16.7176410059  MEMB      77              0.0000000000
      8645        77  SAPE      C21           -33.6782083169       17.5851861612       16.8849531019  MEMB      77              0.0000000000
      8646        77  SAPE      O22           -34.3721348763       18.1657078969       17.7053325937  MEMB      77              0.0000000000
      8647        77  SAPE      C22           -34.2606694206       16.5725160483       15.9030381700  MEMB      77              0.0000000000
      8648        77  SAPE      H2R           -33.9521428310       15.5433888231       16.1714256063  MEMB      77              0.0000000000
      8649        77  SAPE      H2S           -35.3622453087       16.6505485650       16.0084208777  MEMB      77              0.0000000000
      8650        77  SAPE      C3            -30.4248801033       19.1086205806       16.6709205236  MEMB      77              0.0000000000
      8651        77  SAPE      HX            -29.8692378690       18.1504847690       16.7952987554  MEMB      77              0.0000000000
      8652        77  SAPE      HY            -29.8861033900       19.8613445713       17.2862321864  MEMB      77              0.0000000000
      8653        77  SAPE      O31           -30.4584662138       19.5782631367       15.3094135540  MEMB      77              0.0000000000
      8654        77  SAPE      C31           -30.5567690262       18.6114764386       14.3895351614  MEMB      77              0.0000000000
      8655        77  SAPE      O32           -30.6214819354       17.4200862861       14.6101681136  MEMB      77              0.0000000000
      8656        77  SAPE      C32           -30.3922288477       19.1909068775       12.9851715443  MEMB      77              0.0000000000
      8657        77  SAPE      H2X           -29.3604516322       18.9336674354       12.6813426910  MEMB      77              0.0000000000
      8658        77  SAPE      H2Y           -30.4459494896       20.2881838090       13.0429260626  MEMB      77              0.0000000000
      8659        77  SAPE      C23           -33.8216558247       16.9018840613       14.4611258794  MEMB      77              0.0000000000
      8660        77  SAPE      H3R           -32.7985523157       16.4906868103       14.3066322414  MEMB      77              0.0000000000
      8661        77  SAPE      H3S           -33.7569386556       18.0058789947       14.3028801044  MEMB      77              0.0000000000
      8662        77  SAPE      C24           -34.7432708469       16.3140336083       13.3919836546  MEMB      77              0.0000000000
      8663        77  SAPE      H4R           -34.8225139857       15.2199307871       13.5242554527  MEMB      77              0.0000000000
      8664        77  SAPE      H4S           -34.2331260337       16.4522688412       12.4100363385  MEMB      77              0.0000000000
      8665        77  SAPE      C25           -36.0907378549       16.9955159417       13.4705280246  MEMB      77              0.0000000000
      8666        77  SAPE      H5R           -36.6314918028       16.9037486046       14.4219893459  MEMB      77              0.0000000000
      8667        77  SAPE      C26           -36.7238284776       17.5795140329       12.4453924840  MEMB      77              0.0000000000
      8668        77  SAPE      H6R           -37.7325238118       17.9999569640       12.5799073478  MEMB      77              0.0000000000
      8669        77  SAPE      C27           -36.1902412073       17.6339367173       11.0485629518  MEMB      77              0.0000000000
      8670        77  SAPE      H7R           -35.0768110571       17.6819800569       11.0307098715  MEMB      77              0.0000000000
      8671        77  SAPE      H7S           -36.5449474192       18.5386911406       10.5080756423  MEMB      77              0.0000000000
      8672        77  SAPE      C28           -36.6537292920       16.3587370106       10.3928732240  MEMB      77              0.0000000000
      8673        77  SAPE      H8R           -37.3839366960       15.7464453092       10.9322098220  MEMB      77              0.0000000000
      8674        77  SAPE      C29           -36.2537009479       15.9549468054        9.1939459341  MEMB      77              0.0000000000
      8675        77  SAPE      H9R           -36.6986128451       15.0645254961        8.7186976031  MEMB      77              0.0000000000
      8676        77  SAPE      C210          -35.3045690762       16.7499080846        8.3749366449  MEMB      77              0.0000000000
      8677        77  SAPE      H10R          -35.0996069162       17.7619648427        8.7930437443  MEMB      77              0.0000000000
      8678        77  SAPE      H10S          -35.9462330971       16.9082467481        7.5005808483  MEMB      77              0.0000000000
      8679        77  SAPE      C211          -33.9853550276       16.1626181009        7.9625933344  MEMB      77              0.0000000000
      8680        77  SAPE      H11R          -33.6337340264       15.2771319542        8.5068284880  MEMB      77              0.0000000000
      8681        77  SAPE      C212          -33.2321521463       16.7165167571        6.9949364555  MEMB      77              0.0000000000
      8682        77  SAPE      H12R          -32.2554731443       16.2776715696        6.7348276665  MEMB      77              0.0000000000
      8683        77  SAPE      C213          -33.6217333222       17.9647647484        6.2337766107  MEMB      77              0.0000000000
      8684        77  SAPE      H13R          -32.9074302475       18.1461541341        5.4116285550  MEMB      77              0.0000000000
      8685        77  SAPE      H13S          -33.4592244571       18.8116864665        6.9326889550  MEMB      77              0.0000000000
      8686        77  SAPE      C214          -35.0207901630       18.0713001744        5.6660973530  MEMB      77              0.0000000000
      8687        77  SAPE      H14R          -35.6720827123       18.7385328298        6.2460296309  MEMB      77              0.0000000000
      8688        77  SAPE      C215          -35.6482520044       17.3153926451        4.7591692626  MEMB      77              0.0000000000
      8689        77  SAPE      H15R          -36.7140033190       17.5174777737        4.5845561201  MEMB      77              0.0000000000
      8690        77  SAPE      C216          -35.1293977906       16.1232323139        4.0245978593  MEMB      77              0.0000000000
      8691        77  SAPE      H16R          -35.8043402731       15.8883551747        3.1709185124  MEMB      77              0.0000000000
      8692        77  SAPE      H16S          -35.1985769762       15.2645540599        4.7286092503  MEMB      77              0.0000000000
      8693        77  SAPE      C217          -33.6974204554       16.1360964094        3.4708847904  MEMB      77              0.0000000000
      8694        77  SAPE      H17R          -32.9838129084       16.4945632171        4.2291113921  MEMB      77              0.0000000000
      8695        77  SAPE      H17S          -33.6207188693       16.8033883341        2.5846790409  MEMB      77              0.0000000000
      8696        77  SAPE      C218          -33.3644526491       14.6858824717        3.1345262041  MEMB      77              0.0000000000
      8697        77  SAPE      H18R          -34.1030486661       14.4128015992        2.3519245927  MEMB      77              0.0000000000
      8698        77  SAPE      H18S          -33.5549756952       14.0646659183        4.0392595858  MEMB      77              0.0000000000
      8699        77  SAPE      C219          -31.9596144998       14.3522045395        2.6428607566  MEMB      77              0.0000000000
      8700        77  SAPE      H19R          -31.8954890131       13.2567895923        2.4972585189  MEMB      77              0.0000000000
      8701        77  SAPE      H19S          -31.2085029182       14.5711344417        3.4259878096  MEMB      77              0.0000000000
      8702        77  SAPE      C220          -31.6125523740       15.0177198232        1.3249966856  MEMB      77              0.0000000000
      8703        77  SAPE      H20R          -30.5525182986       14.8097935925        1.0620392942  MEMB      77              0.0000000000
      8704        77  SAPE      H20S          -31.7552836344       16.1172186141        1.3923650606  MEMB      77              0.0000000000
      8705        77  SAPE      H20T          -32.2582674956       14.6316631780        0.5071262051  MEMB      77              0.0000000000
      8706        77  SAPE      C33           -31.3641732626       18.6095163504       11.9218309939  MEMB      77              0.0000000000
      8707        77  SAPE      H3X           -32.1418840529       17.9705559061       12.4006946394  MEMB      77              0.0000000000
      8708        77  SAPE      H3Y           -30.7920908075       17.9437730211       11.2394471597  MEMB      77              0.0000000000
      8709        77  SAPE      C34           -32.0904776585       19.6726968792       11.0786564813  MEMB      77              0.0000000000
      8710        77  SAPE      H4X           -32.8119806031       20.1983204602       11.7476151973  MEMB      77              0.0000000000
      8711        77  SAPE      H4Y           -32.7087903865       19.1764459940       10.2980848597  MEMB      77              0.0000000000
      8712        77  SAPE      C35           -31.2031196857       20.7439854686       10.4158826287  MEMB      77              0.0000000000
      8713        77  SAPE      H5X           -30.4815421693       21.1722604015       11.1426594348  MEMB      77              0.0000000000
      8714        77  SAPE      H5Y           -31.8885657313       21.5630229171       10.1093547238  MEMB      77              0.0000000000
      8715        77  SAPE      C36           -30.4609876193       20.3265377086        9.1438019872  MEMB      77              0.0000000000
      8716        77  SAPE      H6X           -31.0727997959       19.5971677886        8.5707504682  MEMB      77              0.0000000000
      8717        77  SAPE      H6Y           -29.5129657394       19.8376218569        9.4355653035  MEMB      77              0.0000000000
      8718        77  SAPE      C37           -30.1201257478       21.5167817154        8.2232439522  MEMB      77              0.0000000000
      8719        77  SAPE      H7X           -29.6958261698       22.3348022987        8.8473988492  MEMB      77              0.0000000000
      8720        77  SAPE      H7Y           -31.0600848455       21.9011750773        7.7715941055  MEMB      77              0.0000000000
      8721        77  SAPE      C38           -29.1080877260       21.1207829045        7.1296759832  MEMB      77              0.0000000000
      8722        77  SAPE      H8X           -29.1401011418       20.0118579566        7.0302709739  MEMB      77              0.0000000000
      8723        77  SAPE      H8Y           -28.0837006934       21.3923993001        7.4708239139  MEMB      77              0.0000000000
      8724        77  SAPE      C39           -29.3612893147       21.6901757528        5.7195516568  MEMB      77              0.0000000000
      8725        77  SAPE      H9X           -29.4447537266       22.7912092953        5.7632006860  MEMB      77              0.0000000000
      8726        77  SAPE      H9Y           -30.3307219585       21.2841020139        5.3557898242  MEMB      77              0.0000000000
      8727        77  SAPE      C310          -28.2459190422       21.3149956738        4.7160368282  MEMB      77              0.0000000000
      8728        77  SAPE      H10X          -27.9262642602       20.2812172047        4.9668356362  MEMB      77              0.0000000000
      8729        77  SAPE      H10Y          -27.3589309887       21.9647243823        4.8869205486  MEMB      77              0.0000000000
      8730        77  SAPE      C311          -28.6681278150       21.3546432154        3.2229952344  MEMB      77              0.0000000000
      8731        77  SAPE      H11X          -28.4322079963       22.3597517681        2.8046474516  MEMB      77              0.0000000000
      8732        77  SAPE      H11Y          -29.7687473449       21.2432960800        3.1705710662  MEMB      77              0.0000000000
      8733        77  SAPE      C312          -27.9822975709       20.2674080550        2.3507648598  MEMB      77              0.0000000000
      8734        77  SAPE      H12X          -27.6266742520       19.4559754316        3.0251620593  MEMB      77              0.0000000000
      8735        77  SAPE      H12Y          -27.0660718047       20.7259650575        1.9385764887  MEMB      77              0.0000000000
      8736        77  SAPE      C313          -28.7751795768       19.5748344065        1.1927629123  MEMB      77              0.0000000000
      8737        77  SAPE      H13X          -29.0791492585       18.5755165977        1.5599614346  MEMB      77              0.0000000000
      8738        77  SAPE      H13Y          -28.0845278973       19.3427003792        0.3559864478  MEMB      77              0.0000000000
      8739        77  SAPE      C314          -30.0578766558       20.2808341831        0.6911381100  MEMB      77              0.0000000000
      8740        77  SAPE      H14X          -29.8696295822       21.3713792624        0.6188615871  MEMB      77              0.0000000000
      8741        77  SAPE      H14Y          -30.8165560425       20.1489581127        1.4890314072  MEMB      77              0.0000000000
      8742        77  SAPE      C315          -30.7043214728       19.7733661229       -0.6312245203  MEMB      77              0.0000000000
      8743        77  SAPE      H15X          -31.0634811034       18.7274374273       -0.4941550650  MEMB      77              0.0000000000
      8744        77  SAPE      H15Y          -29.9804634569       19.7577736972       -1.4681277781  MEMB      77              0.0000000000
      8745        77  SAPE      C316          -31.9227427707       20.6145053654       -1.0626737791  MEMB      77              0.0000000000
      8746        77  SAPE      H16X          -32.5093077981       20.0925268109       -1.8515239241  MEMB      77              0.0000000000
      8747        77  SAPE      H16Y          -31.6186105109       21.5818071964       -1.5081572845  MEMB      77              0.0000000000
      8748        77  SAPE      C317          -32.8260893097       20.8802337419        0.1315179066  MEMB      77              0.0000000000
      8749        77  SAPE      H17X          -32.2988769888       21.5094727641        0.8872391684  MEMB      77              0.0000000000
      8750        77  SAPE      H17Y          -33.0496895939       19.8970442584        0.6125806575  MEMB      77              0.0000000000
      8751        77  SAPE      C318          -34.1306065775       21.5653878033       -0.2184455321  MEMB      77              0.0000000000
      8752        77  SAPE      H18X          -34.7728636592       20.8938945732       -0.8183275625  MEMB      77              0.0000000000
      8753        77  SAPE      H18Y          -34.0089692758       22.5416586982       -0.7265753118  MEMB      77              0.0000000000
      8754        77  SAPE      H18Z          -34.6308613693       21.7772397236        0.7332760480  MEMB      77              0.0000000000
      8755        78  SAPS      N             -35.4873702345      -15.0384659397       20.0767934567  MEMB      78              0.0000000000
      8756        78  SAPS      HN1           -35.5122659160      -15.9212454084       20.6239911675  MEMB      78              0.0000000000
      8757        78  SAPS      HN2           -36.4138347145      -14.8370844360       19.6147201928  MEMB      78              0.0000000000
      8758        78  SAPS      HN3           -34.7123373750      -15.0140943281       19.3727826385  MEMB      78              0.0000000000
      8759        78  SAPS      C12           -35.1035268029      -13.8813409105       20.9449918923  MEMB      78              0.0000000000
      8760        78  SAPS      H12A          -35.7860692997      -13.0799276065       20.7155619453  MEMB      78              0.0000000000
      8761        78  SAPS      C13           -35.1871264079      -14.1273577514       22.4678906108  MEMB      78              0.0000000000
      8762        78  SAPS      O13A          -35.6865445881      -15.2091379235       22.8847715960  MEMB      78              0.0000000000
      8763        78  SAPS      O13B          -34.9892690864      -13.1369585917       23.2115461884  MEMB      78              0.0000000000
      8764        78  SAPS      C11           -33.6848640664      -13.4342049725       20.4997376486  MEMB      78              0.0000000000
      8765        78  SAPS      H11A          -32.8938359893      -13.9967471048       21.0450726907  MEMB      78              0.0000000000
      8766        78  SAPS      H11B          -33.6015852187      -12.3522496369       20.7855502306  MEMB      78              0.0000000000
      8767        78  SAPS      P             -32.6604006949      -12.6302624845       18.2635879310  MEMB      78              0.0000000000
      8768        78  SAPS      O13           -33.1315510074      -11.2792908381       18.5733582793  MEMB      78              0.0000000000
      8769        78  SAPS      O14           -31.2597391069      -12.9998143184       18.4904741044  MEMB      78              0.0000000000
      8770        78  SAPS      O12           -33.5276744290      -13.6638636593       19.0868825521  MEMB      78              0.0000000000
      8771        78  SAPS      O11           -33.1298457366      -12.9782657740       16.8190261450  MEMB      78              0.0000000000
      8772        78  SAPS      C1            -32.8581146602      -14.2348190507       16.2237698655  MEMB      78              0.0000000000
      8773        78  SAPS      HA            -31.7580120001      -14.4206526247       16.1933252962  MEMB      78              0.0000000000
      8774        78  SAPS      HB            -33.3474891991      -15.0604110425       16.7876003582  MEMB      78              0.0000000000
      8775        78  SAPS      C2            -33.4269630357      -14.1787583737       14.7922114165  MEMB      78              0.0000000000
      8776        78  SAPS      HS            -33.2274747589      -15.1408265062       14.2666532244  MEMB      78              0.0000000000
      8777        78  SAPS      O21           -32.8605580963      -13.0893367069       14.0745708567  MEMB      78              0.0000000000
      8778        78  SAPS      C21           -31.6125566942      -13.2079417873       13.7611963743  MEMB      78              0.0000000000
      8779        78  SAPS      O22           -30.9596154030      -14.2374292334       13.7389608178  MEMB      78              0.0000000000
      8780        78  SAPS      C22           -31.1327344041      -11.8018774756       13.4328434340  MEMB      78              0.0000000000
      8781        78  SAPS      H2R           -32.0123442522      -11.2711110359       13.0259613114  MEMB      78              0.0000000000
      8782        78  SAPS      H2S           -30.8480468647      -11.3277422802       14.3983062241  MEMB      78              0.0000000000
      8783        78  SAPS      C3            -34.9401998184      -13.9250873825       14.7870310319  MEMB      78              0.0000000000
      8784        78  SAPS      HX            -35.1543414005      -13.0111121199       15.3853777398  MEMB      78              0.0000000000
      8785        78  SAPS      HY            -35.4319677970      -14.7940550436       15.2885947154  MEMB      78              0.0000000000
      8786        78  SAPS      O31           -35.3324799819      -13.6892780547       13.4148421440  MEMB      78              0.0000000000
      8787        78  SAPS      C31           -36.4432452718      -14.2744312825       13.0709186892  MEMB      78              0.0000000000
      8788        78  SAPS      O32           -37.1921887558      -14.8529008442       13.8267859639  MEMB      78              0.0000000000
      8789        78  SAPS      C32           -36.6322565467      -14.2413002428       11.5648089133  MEMB      78              0.0000000000
      8790        78  SAPS      H2X           -37.6042542341      -14.7303843704       11.3466277323  MEMB      78              0.0000000000
      8791        78  SAPS      H2Y           -35.8340750860      -14.8721390079       11.1335117306  MEMB      78              0.0000000000
      8792        78  SAPS      C23           -29.9731509065      -11.6908144416       12.4284984339  MEMB      78              0.0000000000
      8793        78  SAPS      H3R           -29.0480962162      -12.1140692796       12.8832364356  MEMB      78              0.0000000000
      8794        78  SAPS      H3S           -29.7899546668      -10.6075986334       12.2538923583  MEMB      78              0.0000000000
      8795        78  SAPS      C24           -30.2311943030      -12.3610621218       11.0673595234  MEMB      78              0.0000000000
      8796        78  SAPS      H4R           -30.4182288336      -13.4450906214       11.2310468154  MEMB      78              0.0000000000
      8797        78  SAPS      H4S           -29.2681738403      -12.2858703949       10.5229397136  MEMB      78              0.0000000000
      8798        78  SAPS      C25           -31.2909952117      -11.7283577511       10.2034121515  MEMB      78              0.0000000000
      8799        78  SAPS      H5R           -31.0214145133      -10.7516215637        9.7885780172  MEMB      78              0.0000000000
      8800        78  SAPS      C26           -32.4515837641      -12.2653165652        9.7947491631  MEMB      78              0.0000000000
      8801        78  SAPS      H6R           -33.0929777586      -11.6551871202        9.1439812709  MEMB      78              0.0000000000
      8802        78  SAPS      C27           -32.9890744098      -13.6398659796       10.1010922556  MEMB      78              0.0000000000
      8803        78  SAPS      H7R           -34.0937836155      -13.5859761612       10.1209172127  MEMB      78              0.0000000000
      8804        78  SAPS      H7S           -32.6840940723      -13.9453682014       11.1271035420  MEMB      78              0.0000000000
      8805        78  SAPS      C28           -32.5201823261      -14.6729450793        9.1016660187  MEMB      78              0.0000000000
      8806        78  SAPS      H8R           -31.4279274953      -14.6849641204        8.9568350211  MEMB      78              0.0000000000
      8807        78  SAPS      C29           -33.2643299300      -15.5627484019        8.4053013235  MEMB      78              0.0000000000
      8808        78  SAPS      H9R           -32.7350831821      -16.2351121266        7.7147976952  MEMB      78              0.0000000000
      8809        78  SAPS      C210          -34.7674613372      -15.7711582106        8.4357609649  MEMB      78              0.0000000000
      8810        78  SAPS      H10R          -35.2060626875      -15.1941091805        9.2694033884  MEMB      78              0.0000000000
      8811        78  SAPS      H10S          -34.9741188254      -16.8332339209        8.6932114432  MEMB      78              0.0000000000
      8812        78  SAPS      C211          -35.5274789687      -15.4028706746        7.1769166250  MEMB      78              0.0000000000
      8813        78  SAPS      H11R          -36.2562129405      -14.5888316223        7.2842719595  MEMB      78              0.0000000000
      8814        78  SAPS      C212          -35.4691293869      -15.9778767865        5.9682214887  MEMB      78              0.0000000000
      8815        78  SAPS      H12R          -36.0685767155      -15.5443378970        5.1499986798  MEMB      78              0.0000000000
      8816        78  SAPS      C213          -34.6132226314      -17.1522203406        5.5960063716  MEMB      78              0.0000000000
      8817        78  SAPS      H13R          -35.2294234057      -17.7959768621        4.9352405583  MEMB      78              0.0000000000
      8818        78  SAPS      H13S          -34.3937484291      -17.7625408790        6.4954282788  MEMB      78              0.0000000000
      8819        78  SAPS      C214          -33.3004063697      -16.8255176189        4.9386194523  MEMB      78              0.0000000000
      8820        78  SAPS      H14R          -32.4339463763      -16.7667269604        5.6124544660  MEMB      78              0.0000000000
      8821        78  SAPS      C215          -33.0868350418      -16.6945396291        3.6243020267  MEMB      78              0.0000000000
      8822        78  SAPS      H15R          -32.0769535243      -16.4336519800        3.2762180970  MEMB      78              0.0000000000
      8823        78  SAPS      C216          -34.1168628904      -16.8432138136        2.5408488663  MEMB      78              0.0000000000
      8824        78  SAPS      H16R          -35.0082387348      -16.2331114775        2.7861142057  MEMB      78              0.0000000000
      8825        78  SAPS      H16S          -34.4868430812      -17.8847010344        2.4671241659  MEMB      78              0.0000000000
      8826        78  SAPS      C217          -33.4943394191      -16.4241576524        1.1987071725  MEMB      78              0.0000000000
      8827        78  SAPS      H17R          -34.1493735847      -16.7352634609        0.3590364838  MEMB      78              0.0000000000
      8828        78  SAPS      H17S          -32.5265641277      -16.9527186441        1.0414531250  MEMB      78              0.0000000000
      8829        78  SAPS      C218          -33.2559226923      -14.9131511056        1.1278013481  MEMB      78              0.0000000000
      8830        78  SAPS      H18R          -32.7342748044      -14.6699504732        0.1742051366  MEMB      78              0.0000000000
      8831        78  SAPS      H18S          -32.5734946354      -14.6077563994        1.9509243019  MEMB      78              0.0000000000
      8832        78  SAPS      C219          -34.5452160906      -14.0853228903        1.2185804070  MEMB      78              0.0000000000
      8833        78  SAPS      H19R          -34.3271271636      -13.1448163909        1.7747276424  MEMB      78              0.0000000000
      8834        78  SAPS      H19S          -35.3601834143      -14.5962418274        1.7664294461  MEMB      78              0.0000000000
      8835        78  SAPS      C220          -35.0350347526      -13.7460036805       -0.1737801153  MEMB      78              0.0000000000
      8836        78  SAPS      H20R          -35.2710680354      -14.6705315820       -0.7416407619  MEMB      78              0.0000000000
      8837        78  SAPS      H20S          -34.1821791802      -13.2540271648       -0.6779367034  MEMB      78              0.0000000000
      8838        78  SAPS      H20T          -35.9183958718      -13.0701228753       -0.1620546948  MEMB      78              0.0000000000
      8839        78  SAPS      C33           -36.6290147150      -12.8256796015       10.9559394121  MEMB      78              0.0000000000
      8840        78  SAPS      H3X           -35.5952504608      -12.4176652251       10.9455842587  MEMB      78              0.0000000000
      8841        78  SAPS      H3Y           -37.2502945637      -12.1385021050       11.5731401707  MEMB      78              0.0000000000
      8842        78  SAPS      C34           -37.2091934943      -12.8626511562        9.5374027350  MEMB      78              0.0000000000
      8843        78  SAPS      H4X           -38.2753778739      -13.1789436336        9.6155166460  MEMB      78              0.0000000000
      8844        78  SAPS      H4Y           -36.6796192172      -13.6317420783        8.9499473525  MEMB      78              0.0000000000
      8845        78  SAPS      C35           -37.1531162911      -11.5217066015        8.8081318981  MEMB      78              0.0000000000
      8846        78  SAPS      H5X           -37.4186863466      -10.7344633173        9.5486683110  MEMB      78              0.0000000000
      8847        78  SAPS      H5Y           -37.9083324375      -11.5091578861        7.9868507638  MEMB      78              0.0000000000
      8848        78  SAPS      C36           -35.8037884453      -11.1404369383        8.1989700649  MEMB      78              0.0000000000
      8849        78  SAPS      H6X           -35.0647412856      -10.9983526837        9.0157182579  MEMB      78              0.0000000000
      8850        78  SAPS      H6Y           -35.9383771003      -10.1583710943        7.6974527178  MEMB      78              0.0000000000
      8851        78  SAPS      C37           -35.2507805771      -12.1026271398        7.1398743660  MEMB      78              0.0000000000
      8852        78  SAPS      H7X           -36.0810714306      -12.4911402173        6.5114298213  MEMB      78              0.0000000000
      8853        78  SAPS      H7Y           -34.7581785530      -12.9457374850        7.6700468301  MEMB      78              0.0000000000
      8854        78  SAPS      C38           -34.2115270548      -11.4292988642        6.2395723203  MEMB      78              0.0000000000
      8855        78  SAPS      H8X           -33.4037105689      -11.0554737123        6.9046447791  MEMB      78              0.0000000000
      8856        78  SAPS      H8Y           -34.6716270763      -10.5699997328        5.7060972959  MEMB      78              0.0000000000
      8857        78  SAPS      C39           -33.4781976004      -12.3399320222        5.2570841135  MEMB      78              0.0000000000
      8858        78  SAPS      H9X           -34.1615556386      -12.7470813583        4.4829373953  MEMB      78              0.0000000000
      8859        78  SAPS      H9Y           -33.0817892600      -13.2001790402        5.8459448701  MEMB      78              0.0000000000
      8860        78  SAPS      C310          -32.2935246598      -11.5934108538        4.6190826467  MEMB      78              0.0000000000
      8861        78  SAPS      H10X          -32.0345437988      -10.7223941134        5.2567188092  MEMB      78              0.0000000000
      8862        78  SAPS      H10Y          -32.5753834585      -11.1914965309        3.6211079012  MEMB      78              0.0000000000
      8863        78  SAPS      C311          -31.0332896616      -12.4576817885        4.5221699292  MEMB      78              0.0000000000
      8864        78  SAPS      H11X          -31.2717386570      -13.3033629981        3.8400125593  MEMB      78              0.0000000000
      8865        78  SAPS      H11Y          -30.8004999798      -12.8844023127        5.5235750065  MEMB      78              0.0000000000
      8866        78  SAPS      C312          -29.8087905518      -11.6887586615        4.0033386887  MEMB      78              0.0000000000
      8867        78  SAPS      H12X          -29.1672166490      -11.3586956911        4.8483573644  MEMB      78              0.0000000000
      8868        78  SAPS      H12Y          -30.1441065021      -10.7524398913        3.5083064464  MEMB      78              0.0000000000
      8869        78  SAPS      C313          -28.9835980988      -12.5183006879        3.0139835188  MEMB      78              0.0000000000
      8870        78  SAPS      H13X          -29.4993596430      -13.4767676644        2.7829400933  MEMB      78              0.0000000000
      8871        78  SAPS      H13Y          -28.0049349076      -12.7776378012        3.4809662852  MEMB      78              0.0000000000
      8872        78  SAPS      C314          -28.6974302812      -11.8081640349        1.6883487553  MEMB      78              0.0000000000
      8873        78  SAPS      H14X          -28.1223112411      -12.5373542474        1.0808419279  MEMB      78              0.0000000000
      8874        78  SAPS      H14Y          -28.0209187204      -10.9458876311        1.8850299167  MEMB      78              0.0000000000
      8875        78  SAPS      C315          -29.9083304662      -11.2814516208        0.8868319171  MEMB      78              0.0000000000
      8876        78  SAPS      H15X          -29.4598518003      -10.7369996355        0.0310404704  MEMB      78              0.0000000000
      8877        78  SAPS      H15Y          -30.5149269267      -10.5465338334        1.4519265187  MEMB      78              0.0000000000
      8878        78  SAPS      C316          -30.8252693237      -12.3247641850        0.2475434119  MEMB      78              0.0000000000
      8879        78  SAPS      H16X          -31.6619190099      -12.5928408015        0.9262479214  MEMB      78              0.0000000000
      8880        78  SAPS      H16Y          -30.2266073943      -13.2453311859        0.0753733911  MEMB      78              0.0000000000
      8881        78  SAPS      C317          -31.3822664245      -11.8594606009       -1.1068226981  MEMB      78              0.0000000000
      8882        78  SAPS      H17X          -30.6769864475      -11.1594941892       -1.6108431606  MEMB      78              0.0000000000
      8883        78  SAPS      H17Y          -32.3285038491      -11.2928861951       -0.9522102500  MEMB      78              0.0000000000
      8884        78  SAPS      C318          -31.6198183375      -13.0344830663       -2.0428342961  MEMB      78              0.0000000000
      8885        78  SAPS      H18X          -31.4093541696      -14.0066858669       -1.5512290518  MEMB      78              0.0000000000
      8886        78  SAPS      H18Y          -30.9969638648      -12.9640488600       -2.9616015761  MEMB      78              0.0000000000
      8887        78  SAPS      H18Z          -32.6821904749      -13.0417103014       -2.3278314203  MEMB      78              0.0000000000
      8888        79  SAPS      N              34.7107665063       13.9811693517       19.0708837376  MEMB      79              0.0000000000
      8889        79  SAPS      HN1            34.1317741781       13.1063433921       19.2269077800  MEMB      79              0.0000000000
      8890        79  SAPS      HN2            34.3708103683       14.5282449982       18.2653519745  MEMB      79              0.0000000000
      8891        79  SAPS      HN3            35.6798412145       13.6548052003       18.9576771058  MEMB      79              0.0000000000
      8892        79  SAPS      C12            34.5633912330       14.7734760066       20.3321339751  MEMB      79              0.0000000000
      8893        79  SAPS      H12A           35.1343357317       14.2733211259       21.1054146042  MEMB      79              0.0000000000
      8894        79  SAPS      C13            35.1030439387       16.2192690085       20.1860815097  MEMB      79              0.0000000000
      8895        79  SAPS      O13A           35.6651403131       16.5171610824       19.0937524670  MEMB      79              0.0000000000
      8896        79  SAPS      O13B           35.3442687392       16.8683630412       21.2344670539  MEMB      79              0.0000000000
      8897        79  SAPS      C11            33.0677585648       14.7800904528       20.7598758573  MEMB      79              0.0000000000
      8898        79  SAPS      H11A           32.3883776010       14.9878932822       19.9048691185  MEMB      79              0.0000000000
      8899        79  SAPS      H11B           32.9238536078       15.6040732050       21.4967876183  MEMB      79              0.0000000000
      8900        79  SAPS      P              32.5824718016       12.1543956468       20.7658825791  MEMB      79              0.0000000000
      8901        79  SAPS      O13            33.8598772688       11.8109108577       20.0963356027  MEMB      79              0.0000000000
      8902        79  SAPS      O14            32.0864092542       11.2509368348       21.8361880820  MEMB      79              0.0000000000
      8903        79  SAPS      O12            32.7051244686       13.5747199994       21.4145749085  MEMB      79              0.0000000000
      8904        79  SAPS      O11            31.5528072123       12.4743011174       19.6303535514  MEMB      79              0.0000000000
      8905        79  SAPS      C1             30.2072085684       12.0096681528       19.7408834339  MEMB      79              0.0000000000
      8906        79  SAPS      HA             30.1485944344       10.8922675930       19.7933867352  MEMB      79              0.0000000000
      8907        79  SAPS      HB             29.7489977738       12.3973427966       20.6777769575  MEMB      79              0.0000000000
      8908        79  SAPS      C2             29.3107412034       12.4721779548       18.5485042659  MEMB      79              0.0000000000
      8909        79  SAPS      HS             28.3027045536       12.0663035986       18.7799060366  MEMB      79              0.0000000000
      8910        79  SAPS      O21            29.7918045933       12.0230294372       17.2411473542  MEMB      79              0.0000000000
      8911        79  SAPS      C21            29.1689310408       10.9544584060       16.7203047618  MEMB      79              0.0000000000
      8912        79  SAPS      O22            28.3233789161       10.2847615418       17.2741848008  MEMB      79              0.0000000000
      8913        79  SAPS      C22            29.6022550763       10.7149740375       15.2618217110  MEMB      79              0.0000000000
      8914        79  SAPS      H2R            29.9389495857       11.6738869576       14.8264727567  MEMB      79              0.0000000000
      8915        79  SAPS      H2S            30.4410333651       10.0061990867       15.3192584646  MEMB      79              0.0000000000
      8916        79  SAPS      C3             29.1366678931       14.0451707606       18.5061173648  MEMB      79              0.0000000000
      8917        79  SAPS      HX             28.5934757091       14.3509434364       19.4257979708  MEMB      79              0.0000000000
      8918        79  SAPS      HY             28.4372795002       14.2110311382       17.6551955579  MEMB      79              0.0000000000
      8919        79  SAPS      O31            30.3520988239       14.8328074821       18.3803082910  MEMB      79              0.0000000000
      8920        79  SAPS      C31            30.3782558902       15.6160000553       17.3136458151  MEMB      79              0.0000000000
      8921        79  SAPS      O32            29.4301149005       16.0259908151       16.6703208179  MEMB      79              0.0000000000
      8922        79  SAPS      C32            31.8168171824       15.7720562948       16.8627565139  MEMB      79              0.0000000000
      8923        79  SAPS      H2X            32.4418298504       14.9451868163       17.2578165049  MEMB      79              0.0000000000
      8924        79  SAPS      H2Y            32.2221752290       16.7498574657       17.1885329335  MEMB      79              0.0000000000
      8925        79  SAPS      C23            28.6207472072        9.9975476113       14.2975489981  MEMB      79              0.0000000000
      8926        79  SAPS      H3R            27.7911619035       10.6705591873       14.0098348718  MEMB      79              0.0000000000
      8927        79  SAPS      H3S            28.2083714206        9.0838087230       14.7845351516  MEMB      79              0.0000000000
      8928        79  SAPS      C24            29.3622893183        9.6007653095       13.0101591318  MEMB      79              0.0000000000
      8929        79  SAPS      H4R            30.3055564872        9.0761108143       13.2913745615  MEMB      79              0.0000000000
      8930        79  SAPS      H4S            29.6542553618       10.5487729565       12.5087695756  MEMB      79              0.0000000000
      8931        79  SAPS      C25            28.5559124180        8.7467118428       12.0704256359  MEMB      79              0.0000000000
      8932        79  SAPS      H5R            28.0938166288        7.8551138480       12.5245182282  MEMB      79              0.0000000000
      8933        79  SAPS      C26            28.4699027514        8.9398992342       10.7373336610  MEMB      79              0.0000000000
      8934        79  SAPS      H6R            27.8497496720        8.2397255316       10.1551332494  MEMB      79              0.0000000000
      8935        79  SAPS      C27            29.1585413967       10.0318391082        9.9300401351  MEMB      79              0.0000000000
      8936        79  SAPS      H7R            29.3888481622        9.6081609057        8.9362312920  MEMB      79              0.0000000000
      8937        79  SAPS      H7S            30.1212250546       10.2604905280       10.4161308337  MEMB      79              0.0000000000
      8938        79  SAPS      C28            28.5351917231       11.3846753518        9.7504443962  MEMB      79              0.0000000000
      8939        79  SAPS      H8R            27.9477126334       11.7003275945       10.6245623387  MEMB      79              0.0000000000
      8940        79  SAPS      C29            28.6763676272       12.2790602992        8.7447176287  MEMB      79              0.0000000000
      8941        79  SAPS      H9R            28.0069553421       13.1446612219        8.7577182041  MEMB      79              0.0000000000
      8942        79  SAPS      C210           29.4863286122       12.2542881161        7.4757808911  MEMB      79              0.0000000000
      8943        79  SAPS      H10R           29.5070756591       11.2588174296        7.0008590126  MEMB      79              0.0000000000
      8944        79  SAPS      H10S           30.5088312569       12.4627651373        7.8146022507  MEMB      79              0.0000000000
      8945        79  SAPS      C211           29.0365564572       13.3323474736        6.5021423850  MEMB      79              0.0000000000
      8946        79  SAPS      H11R           28.4551647289       14.1404218016        6.9752018515  MEMB      79              0.0000000000
      8947        79  SAPS      C212           29.3133284978       13.5183444993        5.1953464561  MEMB      79              0.0000000000
      8948        79  SAPS      H12R           28.9879563495       14.4649721540        4.7298977167  MEMB      79              0.0000000000
      8949        79  SAPS      C213           30.1775744017       12.7036392854        4.2813835758  MEMB      79              0.0000000000
      8950        79  SAPS      H13R           31.1627624744       12.8398377440        4.7137509169  MEMB      79              0.0000000000
      8951        79  SAPS      H13S           30.2204751480       13.2172562142        3.2920908529  MEMB      79              0.0000000000
      8952        79  SAPS      C214           30.1163902873       11.2095406569        4.1424971759  MEMB      79              0.0000000000
      8953        79  SAPS      H14R           29.9973175973       10.6387765919        5.0724486245  MEMB      79              0.0000000000
      8954        79  SAPS      C215           30.3329088176       10.5504472464        2.9970780286  MEMB      79              0.0000000000
      8955        79  SAPS      H15R           30.2987834983        9.4515408140        2.9854671722  MEMB      79              0.0000000000
      8956        79  SAPS      C216           30.6589367357       11.1882361837        1.6766385893  MEMB      79              0.0000000000
      8957        79  SAPS      H16R           31.1525467275       10.4275859383        1.0407905779  MEMB      79              0.0000000000
      8958        79  SAPS      H16S           31.4065612405       12.0078359574        1.7629792240  MEMB      79              0.0000000000
      8959        79  SAPS      C217           29.3849834157       11.7468620264        1.0010031299  MEMB      79              0.0000000000
      8960        79  SAPS      H17R           29.6646811225       11.9694981532       -0.0513956423  MEMB      79              0.0000000000
      8961        79  SAPS      H17S           29.0984434540       12.7148905617        1.4676506546  MEMB      79              0.0000000000
      8962        79  SAPS      C218           28.1669547714       10.7972753313        1.0934299735  MEMB      79              0.0000000000
      8963        79  SAPS      H18R           27.7612891860       10.8362625915        2.1318472594  MEMB      79              0.0000000000
      8964        79  SAPS      H18S           28.5039759216        9.7508546693        0.9318603633  MEMB      79              0.0000000000
      8965        79  SAPS      C219           27.0060260714       11.0808644525        0.1245704661  MEMB      79              0.0000000000
      8966        79  SAPS      H19R           26.1851984239       11.5611952323        0.7049342849  MEMB      79              0.0000000000
      8967        79  SAPS      H19S           26.6192087147       10.0978213866       -0.2381631762  MEMB      79              0.0000000000
      8968        79  SAPS      C220           27.3473589479       11.9687014054       -1.0748777937  MEMB      79              0.0000000000
      8969        79  SAPS      H20R           26.5222394266       12.0082722460       -1.8149908396  MEMB      79              0.0000000000
      8970        79  SAPS      H20S           28.2504740419       11.5943397996       -1.5994880865  MEMB      79              0.0000000000
      8971        79  SAPS      H20T           27.5445408534       13.0042760724       -0.7204320787  MEMB      79              0.0000000000
      8972        79  SAPS      C33            31.7070670642       15.7016444333       15.3428869136  MEMB      79              0.0000000000
      8973        79  SAPS      H3X            31.0584707292       16.5258475118       14.9518233238  MEMB      79              0.0000000000
      8974        79  SAPS      H3Y            31.2109547304       14.7371284240       15.0620532870  MEMB      79              0.0000000000
      8975        79  SAPS      C34            33.0218421450       15.7618377103       14.5994369560  MEMB      79              0.0000000000
      8976        79  SAPS      H4X            33.7542446576       15.0365639909       15.0180568732  MEMB      79              0.0000000000
      8977        79  SAPS      H4Y            33.4553312700       16.7861804883       14.6538097265  MEMB      79              0.0000000000
      8978        79  SAPS      C35            32.6916150747       15.3942177526       13.1633687181  MEMB      79              0.0000000000
      8979        79  SAPS      H5X            31.8388521119       16.0140689827       12.7980319978  MEMB      79              0.0000000000
      8980        79  SAPS      H5Y            32.3630309974       14.3287614824       13.1442817225  MEMB      79              0.0000000000
      8981        79  SAPS      C36            33.8652104321       15.5665820065       12.2303561382  MEMB      79              0.0000000000
      8982        79  SAPS      H6X            34.7623413581       15.0992484955       12.6933153640  MEMB      79              0.0000000000
      8983        79  SAPS      H6Y            34.0745428221       16.6489493413       12.0819786624  MEMB      79              0.0000000000
      8984        79  SAPS      C37            33.5421564941       14.9087227610       10.8993410837  MEMB      79              0.0000000000
      8985        79  SAPS      H7X            32.9621659331       13.9741295283       11.0736996525  MEMB      79              0.0000000000
      8986        79  SAPS      H7Y            34.4757302159       14.6115846829       10.3764182757  MEMB      79              0.0000000000
      8987        79  SAPS      C38            32.7602905007       15.8461999987        9.9820026541  MEMB      79              0.0000000000
      8988        79  SAPS      H8X            33.1901007403       16.8735448889       10.0277426397  MEMB      79              0.0000000000
      8989        79  SAPS      H8Y            31.7015224658       15.9064675334       10.3194374978  MEMB      79              0.0000000000
      8990        79  SAPS      C39            32.8562803460       15.3623683226        8.5420866106  MEMB      79              0.0000000000
      8991        79  SAPS      H9X            33.8789437195       15.5860758708        8.1677344226  MEMB      79              0.0000000000
      8992        79  SAPS      H9Y            32.1322499090       15.9067402982        7.9044831277  MEMB      79              0.0000000000
      8993        79  SAPS      C310           32.6146420487       13.8622872175        8.4033160664  MEMB      79              0.0000000000
      8994        79  SAPS      H10X           31.6370008051       13.6312030614        8.8874594547  MEMB      79              0.0000000000
      8995        79  SAPS      H10Y           33.3855045998       13.2629741807        8.9311549681  MEMB      79              0.0000000000
      8996        79  SAPS      C311           32.5875418244       13.4412500622        6.9380848188  MEMB      79              0.0000000000
      8997        79  SAPS      H11X           31.6829456390       13.9094375950        6.4921026681  MEMB      79              0.0000000000
      8998        79  SAPS      H11Y           32.4673255928       12.3333684150        6.8735193513  MEMB      79              0.0000000000
      8999        79  SAPS      C312           33.7672887304       13.8813305272        6.0673468668  MEMB      79              0.0000000000
      9000        79  SAPS      H12X           34.6999168648       13.4269405111        6.4506997396  MEMB      79              0.0000000000
      9001        79  SAPS      H12Y           33.8817191993       14.9862065008        6.0689686584  MEMB      79              0.0000000000
      9002        79  SAPS      C313           33.4861234536       13.4137502166        4.6447700220  MEMB      79              0.0000000000
      9003        79  SAPS      H13X           32.6646106317       14.0216447805        4.2024860574  MEMB      79              0.0000000000
      9004        79  SAPS      H13Y           33.1297958648       12.3576038525        4.7338806669  MEMB      79              0.0000000000
      9005        79  SAPS      C314           34.6397963398       13.4173961930        3.6634037924  MEMB      79              0.0000000000
      9006        79  SAPS      H14X           35.5275194520       12.9818363661        4.1752581257  MEMB      79              0.0000000000
      9007        79  SAPS      H14Y           34.8824288125       14.4547525789        3.3542399914  MEMB      79              0.0000000000
      9008        79  SAPS      C315           34.2457597634       12.5600019455        2.4509301205  MEMB      79              0.0000000000
      9009        79  SAPS      H15X           33.5784889075       13.1232811160        1.7684539868  MEMB      79              0.0000000000
      9010        79  SAPS      H15Y           33.6353666835       11.6892326027        2.7873826162  MEMB      79              0.0000000000
      9011        79  SAPS      C316           35.4577671344       11.9855878218        1.7306152040  MEMB      79              0.0000000000
      9012        79  SAPS      H16X           36.1427106559       11.5175116396        2.4761331844  MEMB      79              0.0000000000
      9013        79  SAPS      H16Y           35.9991925936       12.8282642479        1.2465577526  MEMB      79              0.0000000000
      9014        79  SAPS      C317           35.0552782701       10.9207854780        0.7078157326  MEMB      79              0.0000000000
      9015        79  SAPS      H17X           34.3863866078       10.1676260999        1.1827122817  MEMB      79              0.0000000000
      9016        79  SAPS      H17Y           35.9721721656       10.3733141510        0.3861684452  MEMB      79              0.0000000000
      9017        79  SAPS      C318           34.3743757583       11.5016637404       -0.5303637417  MEMB      79              0.0000000000
      9018        79  SAPS      H18X           34.5674567649       10.8225806796       -1.3822718926  MEMB      79              0.0000000000
      9019        79  SAPS      H18Y           34.7837377260       12.5038245120       -0.7843573634  MEMB      79              0.0000000000
      9020        79  SAPS      H18Z           33.2767078208       11.6004763117       -0.3903467918  MEMB      79              0.0000000000
      9021        80  SAPC      N              -6.9241602432      -36.5650962529       18.6724604013  MEMB      80              0.0000000000
      9022        80  SAPC      C12            -5.4182311461      -36.5609927079       18.4302346882  MEMB      80              0.0000000000
      9023        80  SAPC      H12A           -5.0428429978      -35.5407814971       18.3567013295  MEMB      80              0.0000000000
      9024        80  SAPC      H12B           -5.1903397613      -37.0543699337       17.4941468084  MEMB      80              0.0000000000
      9025        80  SAPC      C13            -7.3698731028      -37.9867706431       18.8200768265  MEMB      80              0.0000000000
      9026        80  SAPC      H13A           -6.7383548737      -38.4724238984       19.5633457010  MEMB      80              0.0000000000
      9027        80  SAPC      H13B           -8.4070703054      -38.0769270469       19.1146122668  MEMB      80              0.0000000000
      9028        80  SAPC      H13C           -7.2231961443      -38.5479602944       17.9003798184  MEMB      80              0.0000000000
      9029        80  SAPC      C14            -7.1846191034      -35.7386069437       19.9071489590  MEMB      80              0.0000000000
      9030        80  SAPC      H14A           -6.4744847994      -36.0300441990       20.6948618837  MEMB      80              0.0000000000
      9031        80  SAPC      H14B           -6.9466885299      -34.6939511909       19.7240551241  MEMB      80              0.0000000000
      9032        80  SAPC      H14C           -8.1792452807      -35.7897782245       20.3126730126  MEMB      80              0.0000000000
      9033        80  SAPC      C15            -7.6236473882      -35.9363815425       17.5230649483  MEMB      80              0.0000000000
      9034        80  SAPC      H15A           -7.4203070882      -34.8695278684       17.4853337812  MEMB      80              0.0000000000
      9035        80  SAPC      H15B           -7.2939792771      -36.3859961375       16.5946144240  MEMB      80              0.0000000000
      9036        80  SAPC      H15C           -8.6950720454      -36.0731149911       17.6140459108  MEMB      80              0.0000000000
      9037        80  SAPC      C11            -4.5538663580      -37.2008346794       19.5307905404  MEMB      80              0.0000000000
      9038        80  SAPC      H11A           -3.5048959327      -37.1931836461       19.1280311819  MEMB      80              0.0000000000
      9039        80  SAPC      H11B           -4.8010082149      -38.2727523755       19.6868743304  MEMB      80              0.0000000000
      9040        80  SAPC      P              -3.5360070700      -35.5363271601       21.2276287643  MEMB      80              0.0000000000
      9041        80  SAPC      O13            -3.9222693259      -34.6260565922       22.3387067551  MEMB      80              0.0000000000
      9042        80  SAPC      O14            -2.3617402765      -36.4257263071       21.3803055628  MEMB      80              0.0000000000
      9043        80  SAPC      O12            -4.7061867344      -36.4878310406       20.7708406310  MEMB      80              0.0000000000
      9044        80  SAPC      O11            -3.4087981510      -34.6710031047       19.9065973538  MEMB      80              0.0000000000
      9045        80  SAPC      C1             -2.2151760129      -33.9111968657       19.7112722404  MEMB      80              0.0000000000
      9046        80  SAPC      HA             -2.3095529041      -32.9370014338       20.2273198508  MEMB      80              0.0000000000
      9047        80  SAPC      HB             -1.3167030773      -34.4172000417       20.1426768070  MEMB      80              0.0000000000
      9048        80  SAPC      C2             -1.9027110488      -33.6803539879       18.1994999112  MEMB      80              0.0000000000
      9049        80  SAPC      HS             -1.1229266883      -32.8935155500       18.1302524492  MEMB      80              0.0000000000
      9050        80  SAPC      O21            -3.0052800711      -33.2916671801       17.3849988866  MEMB      80              0.0000000000
      9051        80  SAPC      C21            -3.9116879249      -32.5037967715       17.8953722466  MEMB      80              0.0000000000
      9052        80  SAPC      O22            -3.7370467850      -31.6513775391       18.7534483527  MEMB      80              0.0000000000
      9053        80  SAPC      C22            -5.2735670259      -32.9288490826       17.3278688803  MEMB      80              0.0000000000
      9054        80  SAPC      H2R            -5.2942884074      -34.0344793388       17.3358816628  MEMB      80              0.0000000000
      9055        80  SAPC      H2S            -6.0365137680      -32.5465042644       18.0359667476  MEMB      80              0.0000000000
      9056        80  SAPC      C3             -1.2881278492      -34.9618326986       17.5896247605  MEMB      80              0.0000000000
      9057        80  SAPC      HX             -0.8014306776      -35.5257987816       18.4174456945  MEMB      80              0.0000000000
      9058        80  SAPC      HY             -0.4818254855      -34.6378297634       16.8895666303  MEMB      80              0.0000000000
      9059        80  SAPC      O31            -2.2684600198      -35.8255474803       16.9950018557  MEMB      80              0.0000000000
      9060        80  SAPC      C31            -1.8469335270      -36.4242841160       15.8980472927  MEMB      80              0.0000000000
      9061        80  SAPC      O32            -1.0310218471      -35.9955421375       15.1032578697  MEMB      80              0.0000000000
      9062        80  SAPC      C32            -2.4114237884      -37.8548915922       15.9525481208  MEMB      80              0.0000000000
      9063        80  SAPC      H2X            -3.3796237150      -37.8445300842       16.4880244234  MEMB      80              0.0000000000
      9064        80  SAPC      H2Y            -1.6833251137      -38.4237652237       16.5723926625  MEMB      80              0.0000000000
      9065        80  SAPC      C23            -5.5903608947      -32.4298663884       15.8969926221  MEMB      80              0.0000000000
      9066        80  SAPC      H3R            -5.6382468857      -31.3164338526       15.8986751149  MEMB      80              0.0000000000
      9067        80  SAPC      H3S            -6.6041207587      -32.7950797457       15.6227955742  MEMB      80              0.0000000000
      9068        80  SAPC      C24            -4.5872924148      -32.8793633335       14.8148075502  MEMB      80              0.0000000000
      9069        80  SAPC      H4R            -3.5707959794      -32.6737875254       15.1850593156  MEMB      80              0.0000000000
      9070        80  SAPC      H4S            -4.7232971529      -32.2145443170       13.9334090318  MEMB      80              0.0000000000
      9071        80  SAPC      C25            -4.6014255262      -34.3147151589       14.3675556870  MEMB      80              0.0000000000
      9072        80  SAPC      H5R            -3.7999956673      -34.9408751066       14.7864468749  MEMB      80              0.0000000000
      9073        80  SAPC      C26            -5.4518983208      -34.8180426439       13.4568934931  MEMB      80              0.0000000000
      9074        80  SAPC      H6R            -5.3620152728      -35.8665765606       13.1421449255  MEMB      80              0.0000000000
      9075        80  SAPC      C27            -6.5137930470      -34.0168740063       12.7635744745  MEMB      80              0.0000000000
      9076        80  SAPC      H7R            -6.8614746449      -33.2746297562       13.4918313284  MEMB      80              0.0000000000
      9077        80  SAPC      H7S            -7.3967911135      -34.6508430321       12.5299439500  MEMB      80              0.0000000000
      9078        80  SAPC      C28            -6.0763454929      -33.1931855219       11.5859483453  MEMB      80              0.0000000000
      9079        80  SAPC      H8R            -5.3952723255      -32.3684583978       11.8394462891  MEMB      80              0.0000000000
      9080        80  SAPC      C29            -6.5170277579      -33.3058112786       10.3236005513  MEMB      80              0.0000000000
      9081        80  SAPC      H9R            -6.1826978732      -32.5513521814        9.5957042407  MEMB      80              0.0000000000
      9082        80  SAPC      C210           -7.5401165603      -34.2907237254        9.8053905052  MEMB      80              0.0000000000
      9083        80  SAPC      H10R           -8.0424189136      -33.8730628098        8.9048309088  MEMB      80              0.0000000000
      9084        80  SAPC      H10S           -8.3573434142      -34.4524555072       10.5448409982  MEMB      80              0.0000000000
      9085        80  SAPC      C211           -6.8479029299      -35.5954098747        9.4838802479  MEMB      80              0.0000000000
      9086        80  SAPC      H11R           -6.6190273860      -36.2225776451       10.3614380697  MEMB      80              0.0000000000
      9087        80  SAPC      C212           -6.4570437995      -36.0165660255        8.2605844438  MEMB      80              0.0000000000
      9088        80  SAPC      H12R           -5.8966294930      -36.9639173833        8.1928957884  MEMB      80              0.0000000000
      9089        80  SAPC      C213           -6.6234883826      -35.2852615757        6.9433266573  MEMB      80              0.0000000000
      9090        80  SAPC      H13R           -7.7084602347      -35.2301030642        6.6997911374  MEMB      80              0.0000000000
      9091        80  SAPC      H13S           -6.1620748438      -35.8931288361        6.1331434130  MEMB      80              0.0000000000
      9092        80  SAPC      C214           -6.0433319733      -33.8921267593        6.8977390541  MEMB      80              0.0000000000
      9093        80  SAPC      H14R           -5.7460914193      -33.4781694784        7.8671859269  MEMB      80              0.0000000000
      9094        80  SAPC      C215           -5.7900738152      -33.1497560898        5.8125107209  MEMB      80              0.0000000000
      9095        80  SAPC      H15R           -5.4051829857      -32.1312178840        5.9673501772  MEMB      80              0.0000000000
      9096        80  SAPC      C216           -6.0280526951      -33.5362899085        4.3769400303  MEMB      80              0.0000000000
      9097        80  SAPC      H16R           -6.2720433533      -32.6239293543        3.7929168481  MEMB      80              0.0000000000
      9098        80  SAPC      H16S           -6.8963823451      -34.2247853502        4.2733108333  MEMB      80              0.0000000000
      9099        80  SAPC      C217           -4.8057855062      -34.1785525421        3.6963534496  MEMB      80              0.0000000000
      9100        80  SAPC      H17R           -4.6568193989      -35.2093449241        4.0747471799  MEMB      80              0.0000000000
      9101        80  SAPC      H17S           -3.8775507989      -33.6331142805        3.9696961014  MEMB      80              0.0000000000
      9102        80  SAPC      C218           -4.9388343754      -34.1473081554        2.1645704628  MEMB      80              0.0000000000
      9103        80  SAPC      H18R           -3.9431226243      -34.3463165466        1.7137622334  MEMB      80              0.0000000000
      9104        80  SAPC      H18S           -5.2376382377      -33.1237847833        1.8421357296  MEMB      80              0.0000000000
      9105        80  SAPC      C219           -5.9297618687      -35.1721860967        1.6008234953  MEMB      80              0.0000000000
      9106        80  SAPC      H19R           -5.9567963276      -35.0632068322        0.4930419973  MEMB      80              0.0000000000
      9107        80  SAPC      H19S           -6.9523315663      -34.9523100320        1.9827391493  MEMB      80              0.0000000000
      9108        80  SAPC      C220           -5.5518133044      -36.6153660385        1.9367691564  MEMB      80              0.0000000000
      9109        80  SAPC      H20R           -6.1466587195      -37.3277603475        1.3278438490  MEMB      80              0.0000000000
      9110        80  SAPC      H20S           -5.7384867845      -36.8237235861        3.0115101125  MEMB      80              0.0000000000
      9111        80  SAPC      H20T           -4.4734697933      -36.7826330419        1.7350571695  MEMB      80              0.0000000000
      9112        80  SAPC      C33            -2.5560474803      -38.5801251009       14.5967939407  MEMB      80              0.0000000000
      9113        80  SAPC      H3X            -2.7501002142      -39.6604113758       14.7958687262  MEMB      80              0.0000000000
      9114        80  SAPC      H3Y            -1.5935184256      -38.5185522903       14.0427069776  MEMB      80              0.0000000000
      9115        80  SAPC      C34            -3.7187216658      -38.0647204239       13.7384185100  MEMB      80              0.0000000000
      9116        80  SAPC      H4X            -3.6422728711      -36.9615432572       13.6342536401  MEMB      80              0.0000000000
      9117        80  SAPC      H4Y            -4.6857306014      -38.2995790350       14.2334717922  MEMB      80              0.0000000000
      9118        80  SAPC      C35            -3.7144945135      -38.6751883354       12.3314023297  MEMB      80              0.0000000000
      9119        80  SAPC      H5X            -4.6960584730      -38.5068570604       11.8302909793  MEMB      80              0.0000000000
      9120        80  SAPC      H5Y            -3.5625211789      -39.7741252427       12.4086518943  MEMB      80              0.0000000000
      9121        80  SAPC      C36            -2.6111485570      -38.0613412277       11.4695883264  MEMB      80              0.0000000000
      9122        80  SAPC      H6X            -2.2806732612      -38.7643343768       10.6763826568  MEMB      80              0.0000000000
      9123        80  SAPC      H6Y            -1.7099923347      -37.8354808563       12.0797059956  MEMB      80              0.0000000000
      9124        80  SAPC      C37            -3.0737546821      -36.7803395971       10.7878813421  MEMB      80              0.0000000000
      9125        80  SAPC      H7X            -3.4439518240      -36.0376274062       11.5284638667  MEMB      80              0.0000000000
      9126        80  SAPC      H7Y            -3.9122741178      -37.0105271218       10.0915944674  MEMB      80              0.0000000000
      9127        80  SAPC      C38            -1.9194102647      -36.1839161955       10.0017928025  MEMB      80              0.0000000000
      9128        80  SAPC      H8X            -1.5157602434      -36.9724566350        9.3274221597  MEMB      80              0.0000000000
      9129        80  SAPC      H8Y            -1.1003314266      -35.8755620594       10.6910502516  MEMB      80              0.0000000000
      9130        80  SAPC      C39            -2.3738215571      -34.9882513771        9.1846175131  MEMB      80              0.0000000000
      9131        80  SAPC      H9X            -2.6336182709      -34.1530302192        9.8747801632  MEMB      80              0.0000000000
      9132        80  SAPC      H9Y            -3.3017785014      -35.2337557201        8.6222055878  MEMB      80              0.0000000000
      9133        80  SAPC      C310           -1.2748440509      -34.5365800416        8.2293554558  MEMB      80              0.0000000000
      9134        80  SAPC      H10X           -0.3370143584      -34.3429781124        8.7942489464  MEMB      80              0.0000000000
      9135        80  SAPC      H10Y           -1.6372743913      -33.5860803159        7.8130630648  MEMB      80              0.0000000000
      9136        80  SAPC      C311           -1.0048417283      -35.4816560539        7.0521841287  MEMB      80              0.0000000000
      9137        80  SAPC      H11X           -0.6566355471      -36.4735707342        7.4124534837  MEMB      80              0.0000000000
      9138        80  SAPC      H11Y           -0.1782555708      -35.0456492619        6.4476011514  MEMB      80              0.0000000000
      9139        80  SAPC      C312           -2.2384474206      -35.6666332607        6.1562317706  MEMB      80              0.0000000000
      9140        80  SAPC      H12X           -2.5880034160      -34.6667714606        5.8072381219  MEMB      80              0.0000000000
      9141        80  SAPC      H12Y           -3.0726633892      -36.1228112955        6.7325872436  MEMB      80              0.0000000000
      9142        80  SAPC      C313           -1.9563267416      -36.5467259863        4.9366019695  MEMB      80              0.0000000000
      9143        80  SAPC      H13X           -2.9175468179      -36.7133109445        4.3986144546  MEMB      80              0.0000000000
      9144        80  SAPC      H13Y           -1.5777260687      -37.5397398520        5.2629791566  MEMB      80              0.0000000000
      9145        80  SAPC      C314           -0.9685793054      -35.8708346243        3.9813558250  MEMB      80              0.0000000000
      9146        80  SAPC      H14X            0.0536200592      -35.8726367892        4.4186193270  MEMB      80              0.0000000000
      9147        80  SAPC      H14Y           -1.2900596496      -34.8098111347        3.8764999579  MEMB      80              0.0000000000
      9148        80  SAPC      C315           -0.9414423445      -36.5279820668        2.6000888880  MEMB      80              0.0000000000
      9149        80  SAPC      H15X           -1.9901130900      -36.6593415566        2.2484113356  MEMB      80              0.0000000000
      9150        80  SAPC      H15Y           -0.4858255061      -37.5399063924        2.6925660371  MEMB      80              0.0000000000
      9151        80  SAPC      C316           -0.1612877435      -35.7098478864        1.5611680980  MEMB      80              0.0000000000
      9152        80  SAPC      H16X           -0.1161856596      -36.2972590596        0.6194296668  MEMB      80              0.0000000000
      9153        80  SAPC      H16Y            0.8838178639      -35.5618974470        1.9053916899  MEMB      80              0.0000000000
      9154        80  SAPC      C317           -0.7901116120      -34.3448695885        1.2484894033  MEMB      80              0.0000000000
      9155        80  SAPC      H17X           -0.5849368633      -33.6434866918        2.0873802971  MEMB      80              0.0000000000
      9156        80  SAPC      H17Y           -1.8947424256      -34.4595129873        1.1892818213  MEMB      80              0.0000000000
      9157        80  SAPC      C318           -0.2837166596      -33.7504726242       -0.0662480568  MEMB      80              0.0000000000
      9158        80  SAPC      H18X            0.8185629275      -33.6239663779       -0.0310711564  MEMB      80              0.0000000000
      9159        80  SAPC      H18Y           -0.7502896650      -32.7612987936       -0.2605890792  MEMB      80              0.0000000000
      9160        80  SAPC      H18Z           -0.5258531599      -34.4296616567       -0.9134950820  MEMB      80              0.0000000000
      9161        81  OSM       N             -12.2912108807       33.1645222513       21.5309765991  MEMB      81              0.0000000000
      9162        81  OSM       C15           -12.8404782132       31.8186241400       21.8870857402  MEMB      81              0.0000000000
      9163        81  OSM       H15A          -12.4313138174       31.5379678291       22.8523792873  MEMB      81              0.0000000000
      9164        81  OSM       H15B          -12.4721726083       31.0561819363       21.2014250566  MEMB      81              0.0000000000
      9165        81  OSM       H15C          -13.9180021667       31.7605707218       21.9374545327  MEMB      81              0.0000000000
      9166        81  OSM       C14           -10.8024607767       33.0350970782       21.6360113272  MEMB      81              0.0000000000
      9167        81  OSM       H14A          -10.4614190883       32.2050205046       21.0042608821  MEMB      81              0.0000000000
      9168        81  OSM       H14B          -10.4644460315       32.7659961007       22.6292085509  MEMB      81              0.0000000000
      9169        81  OSM       H14C          -10.3154205173       33.9467117380       21.3250964462  MEMB      81              0.0000000000
      9170        81  OSM       C13           -12.6302299815       33.5042448389       20.1148799228  MEMB      81              0.0000000000
      9171        81  OSM       H13A          -13.6946014602       33.6535264239       19.9883918266  MEMB      81              0.0000000000
      9172        81  OSM       H13B          -12.2682389442       32.7748390368       19.4102331198  MEMB      81              0.0000000000
      9173        81  OSM       H13C          -12.2087442018       34.4731738988       19.8357057032  MEMB      81              0.0000000000
      9174        81  OSM       C12           -12.8910445637       34.2163910930       22.4574459191  MEMB      81              0.0000000000
      9175        81  OSM       H12A          -12.8900648272       33.8250248101       23.4658261185  MEMB      81              0.0000000000
      9176        81  OSM       H12B          -13.9141661436       34.3833028158       22.1176595060  MEMB      81              0.0000000000
      9177        81  OSM       C11           -12.2775296235       35.6288911753       22.5315554149  MEMB      81              0.0000000000
      9178        81  OSM       H11A          -11.2514361671       35.5841669049       22.9591330509  MEMB      81              0.0000000000
      9179        81  OSM       H11B          -12.8890836396       36.2361424282       23.2458339473  MEMB      81              0.0000000000
      9180        81  OSM       P             -13.4798486498       37.0467987007       20.6731085968  MEMB      81              0.0000000000
      9181        81  OSM       O13           -14.4136847163       36.0874373260       20.0507683201  MEMB      81              0.0000000000
      9182        81  OSM       O14           -14.0799874840       37.9060245338       21.7219478582  MEMB      81              0.0000000000
      9183        81  OSM       O11           -12.7689550021       37.9279158990       19.5445042622  MEMB      81              0.0000000000
      9184        81  OSM       O12           -12.2370480230       36.2251659654       21.2515688445  MEMB      81              0.0000000000
      9185        81  OSM       C1S           -11.6105650675       37.2956332285       18.9416258588  MEMB      81              0.0000000000
      9186        81  OSM       H1S           -11.6123677793       36.1825669158       19.0144637092  MEMB      81              0.0000000000
      9187        81  OSM       H1T           -10.6826096536       37.6666855461       19.4248459046  MEMB      81              0.0000000000
      9188        81  OSM       NF            -10.8245144714       36.6261106919       16.6210187428  MEMB      81              0.0000000000
      9189        81  OSM       HNF           -10.3164264065       37.0261906399       15.8722816516  MEMB      81              0.0000000000
      9190        81  OSM       C2S           -11.5512678048       37.5922897822       17.4309589446  MEMB      81              0.0000000000
      9191        81  OSM       H2S           -12.6090790686       37.5865076421       17.0668816243  MEMB      81              0.0000000000
      9192        81  OSM       C3S           -10.9323075525       38.9614110507       17.1913247360  MEMB      81              0.0000000000
      9193        81  OSM       H3S            -9.8683551030       38.9780508881       17.5134208607  MEMB      81              0.0000000000
      9194        81  OSM       O3            -11.5909354904       40.0137830153       17.8551453396  MEMB      81              0.0000000000
      9195        81  OSM       HO3           -12.1471049642       39.6194389004       18.5409039208  MEMB      81              0.0000000000
      9196        81  OSM       C4S           -11.0494869674       39.1870512586       15.7502344402  MEMB      81              0.0000000000
      9197        81  OSM       H4S           -12.0626363151       39.5738146971       15.6054961306  MEMB      81              0.0000000000
      9198        81  OSM       C5S           -10.2176045675       38.9660189685       14.6923896196  MEMB      81              0.0000000000
      9199        81  OSM       H5S            -9.2044599034       38.5599200255       14.8488488978  MEMB      81              0.0000000000
      9200        81  OSM       C6S           -10.6184507058       39.2921003695       13.2601297545  MEMB      81              0.0000000000
      9201        81  OSM       H6S           -10.8039172879       38.3765449779       12.6536302667  MEMB      81              0.0000000000
      9202        81  OSM       H6T            -9.8474890804       39.8752012364       12.7142028392  MEMB      81              0.0000000000
      9203        81  OSM       C7S           -11.9266622762       40.0816910608       13.3906167418  MEMB      81              0.0000000000
      9204        81  OSM       H7S           -11.7602666393       40.9744775190       14.0497056580  MEMB      81              0.0000000000
      9205        81  OSM       H7T           -12.6511178160       39.4068004225       13.8405524095  MEMB      81              0.0000000000
      9206        81  OSM       C8S           -12.7052797682       40.5752804876       12.2080020030  MEMB      81              0.0000000000
      9207        81  OSM       H8S           -11.9221497345       41.2606230312       11.8403379996  MEMB      81              0.0000000000
      9208        81  OSM       H8T           -13.5684104997       41.1479633004       12.5782445060  MEMB      81              0.0000000000
      9209        81  OSM       C9S           -13.1299706616       39.5517629601       11.1388816792  MEMB      81              0.0000000000
      9210        81  OSM       H9S           -13.0024081464       38.5160438612       11.4984426624  MEMB      81              0.0000000000
      9211        81  OSM       H9T           -12.2496449224       39.8083305973       10.5609307511  MEMB      81              0.0000000000
      9212        81  OSM       C10S          -14.4562659295       39.8270897710       10.3103385825  MEMB      81              0.0000000000
      9213        81  OSM       H10S          -14.4353221721       40.8892821693       10.3061889950  MEMB      81              0.0000000000
      9214        81  OSM       H10T          -15.2971032512       39.6089256825       11.0011046954  MEMB      81              0.0000000000
      9215        81  OSM       C11S          -14.9710675796       39.3380883246        8.8385481385  MEMB      81              0.0000000000
      9216        81  OSM       H11S          -15.9851122464       39.7580103572        8.7839349453  MEMB      81              0.0000000000
      9217        81  OSM       H11T          -15.2168901117       38.3054707014        9.0397058368  MEMB      81              0.0000000000
      9218        81  OSM       C12S          -14.5253276394       39.6838399035        7.2882749489  MEMB      81              0.0000000000
      9219        81  OSM       H12S          -14.2552068876       40.7057301953        7.1506166814  MEMB      81              0.0000000000
      9220        81  OSM       H12T          -15.5245634623       39.7367520669        6.7972856538  MEMB      81              0.0000000000
      9221        81  OSM       C13S          -13.8756774815       38.8723607625        6.0460800084  MEMB      81              0.0000000000
      9222        81  OSM       H13S          -14.3030705750       39.5283924666        5.2530542588  MEMB      81              0.0000000000
      9223        81  OSM       H13T          -14.3973686423       37.9369832361        5.8822619046  MEMB      81              0.0000000000
      9224        81  OSM       C14S          -12.3923027032       38.6732226796        5.4928663343  MEMB      81              0.0000000000
      9225        81  OSM       H14S          -11.6622469398       39.4026791814        5.8637567052  MEMB      81              0.0000000000
      9226        81  OSM       H14T          -12.4049861219       38.9189821732        4.4139350323  MEMB      81              0.0000000000
      9227        81  OSM       C15S          -11.8124078452       37.2132054732        5.5491978276  MEMB      81              0.0000000000
      9228        81  OSM       H15S          -12.6798211494       36.5571902759        5.7736939914  MEMB      81              0.0000000000
      9229        81  OSM       H15T          -11.0969338599       37.1270212410        6.3916997510  MEMB      81              0.0000000000
      9230        81  OSM       C16S          -11.2456632900       36.4952573383        4.2886257918  MEMB      81              0.0000000000
      9231        81  OSM       H16S          -11.8572353090       36.7091761492        3.3928326025  MEMB      81              0.0000000000
      9232        81  OSM       H16T          -11.3881970587       35.3973014034        4.4717964696  MEMB      81              0.0000000000
      9233        81  OSM       C17S           -9.7366841877       36.6333516327        4.0118492129  MEMB      81              0.0000000000
      9234        81  OSM       H17S           -9.2219412694       35.7380301921        4.4366400469  MEMB      81              0.0000000000
      9235        81  OSM       H17T           -9.3392366395       37.5191855108        4.5534529750  MEMB      81              0.0000000000
      9236        81  OSM       C18S           -9.3545109322       36.7475816631        2.5270787442  MEMB      81              0.0000000000
      9237        81  OSM       H18S           -9.5750806980       37.7713376017        2.1607316087  MEMB      81              0.0000000000
      9238        81  OSM       H18T           -9.9081005728       36.0177394822        1.8979010065  MEMB      81              0.0000000000
      9239        81  OSM       H18U           -8.2667846775       36.5621569872        2.3924000548  MEMB      81              0.0000000000
      9240        81  OSM       C1F           -11.2743784138       35.4244766533       16.3638089056  MEMB      81              0.0000000000
      9241        81  OSM       OF            -12.0810351356       34.8557837899       17.0716411431  MEMB      81              0.0000000000
      9242        81  OSM       C2F           -10.7628702817       34.7925672098       15.1161822292  MEMB      81              0.0000000000
      9243        81  OSM       H2F           -11.3913754297       33.8847722387       14.9762001577  MEMB      81              0.0000000000
      9244        81  OSM       H2G            -9.6937503129       34.5243327827       15.2651156047  MEMB      81              0.0000000000
      9245        81  OSM       C3F           -10.8917760356       35.5546959574       13.7822217281  MEMB      81              0.0000000000
      9246        81  OSM       H3F           -10.2617786762       36.4604150584       13.7335988412  MEMB      81              0.0000000000
      9247        81  OSM       H3G           -11.9491581137       35.8443496196       13.6525002806  MEMB      81              0.0000000000
      9248        81  OSM       C4F           -10.5663518181       34.6012851112       12.6255282578  MEMB      81              0.0000000000
      9249        81  OSM       H4F           -11.3090119141       33.7707915168       12.6974892829  MEMB      81              0.0000000000
      9250        81  OSM       H4G            -9.5561808132       34.1603415767       12.7789879431  MEMB      81              0.0000000000
      9251        81  OSM       C5F           -10.6501290539       35.2152107427       11.2209982225  MEMB      81              0.0000000000
      9252        81  OSM       H5F            -9.6249533678       35.5490281276       10.9382933315  MEMB      81              0.0000000000
      9253        81  OSM       H5G           -11.3098367913       36.1106988294       11.2526931341  MEMB      81              0.0000000000
      9254        81  OSM       C6F           -11.1889441437       34.2050503135       10.1836357660  MEMB      81              0.0000000000
      9255        81  OSM       H6F           -12.2887376788       34.0849549358       10.3006316879  MEMB      81              0.0000000000
      9256        81  OSM       H6G           -10.7215130356       33.2242977734       10.3917370268  MEMB      81              0.0000000000
      9257        81  OSM       C7F           -10.7754136039       34.4640700958        8.7278438815  MEMB      81              0.0000000000
      9258        81  OSM       H7F            -9.6728496768       34.2916257019        8.6766889963  MEMB      81              0.0000000000
      9259        81  OSM       H7G           -10.8976700407       35.5199123658        8.4462343706  MEMB      81              0.0000000000
      9260        81  OSM       C8F           -11.4644455091       33.5819459858        7.6407444352  MEMB      81              0.0000000000
      9261        81  OSM       H8F           -10.6038307076       33.0764940210        7.1487561821  MEMB      81              0.0000000000
      9262        81  OSM       H8G           -11.8850992154       34.2425925635        6.8537749087  MEMB      81              0.0000000000
      9263        81  OSM       C9F           -12.3990044393       32.4526246531        8.0264041088  MEMB      81              0.0000000000
      9264        81  OSM       H9F           -12.0171805802       31.8646270688        8.8753869841  MEMB      81              0.0000000000
      9265        81  OSM       C10F          -13.5911993231       32.0597693179        7.5284250123  MEMB      81              0.0000000000
      9266        81  OSM       H10F          -14.0201068953       31.1395039903        7.9503242801  MEMB      81              0.0000000000
      9267        81  OSM       C11F          -14.4526573950       32.5973049170        6.4190580272  MEMB      81              0.0000000000
      9268        81  OSM       H11F          -14.3949400291       33.6884910518        6.4022731168  MEMB      81              0.0000000000
      9269        81  OSM       H11G          -15.4712660223       32.3541472577        6.7777109882  MEMB      81              0.0000000000
      9270        81  OSM       C12F          -14.4307945492       32.1685341743        4.9290200866  MEMB      81              0.0000000000
      9271        81  OSM       H12F          -15.4774474651       31.8884616528        4.6662816917  MEMB      81              0.0000000000
      9272        81  OSM       H12G          -13.8172268729       31.2649460505        4.7673905243  MEMB      81              0.0000000000
      9273        81  OSM       C13F          -14.0358906989       33.3174113218        3.9771145592  MEMB      81              0.0000000000
      9274        81  OSM       H13F          -12.9548975400       33.2466447280        3.7331444611  MEMB      81              0.0000000000
      9275        81  OSM       H13G          -14.1575352049       34.2975235639        4.4964249672  MEMB      81              0.0000000000
      9276        81  OSM       C14F          -14.9158654430       33.4276672195        2.7132290509  MEMB      81              0.0000000000
      9277        81  OSM       H14F          -15.4250303952       34.4138591126        2.7797175832  MEMB      81              0.0000000000
      9278        81  OSM       H14G          -15.7266922841       32.6672044517        2.7012851310  MEMB      81              0.0000000000
      9279        81  OSM       C15F          -14.1186315592       33.3512379439        1.3977219273  MEMB      81              0.0000000000
      9280        81  OSM       H15F          -14.2399393190       32.2975075011        1.0308840469  MEMB      81              0.0000000000
      9281        81  OSM       H15G          -13.0531727985       33.5111583963        1.6497342273  MEMB      81              0.0000000000
      9282        81  OSM       C16F          -14.6046858365       34.3646766016        0.3246893870  MEMB      81              0.0000000000
      9283        81  OSM       H16F          -15.2671017857       35.0514836968        0.9119580150  MEMB      81              0.0000000000
      9284        81  OSM       H16G          -15.2956522102       33.8755745970       -0.3885057456  MEMB      81              0.0000000000
      9285        81  OSM       C17F          -13.7125684535       35.4412505663       -0.4060433555  MEMB      81              0.0000000000
      9286        81  OSM       H17F          -13.5495813903       36.0635985693        0.4640590537  MEMB      81              0.0000000000
      9287        81  OSM       H17G          -14.3854638518       35.9932483414       -1.0966442103  MEMB      81              0.0000000000
      9288        81  OSM       C18F          -12.2718079975       35.5011540427       -0.9921067465  MEMB      81              0.0000000000
      9289        81  OSM       H18F          -11.5800049736       36.0147974410       -0.2885182238  MEMB      81              0.0000000000
      9290        81  OSM       H18G          -12.2313422752       36.1073861161       -1.9045876277  MEMB      81              0.0000000000
      9291        81  OSM       H18H          -11.8032983421       34.5784821744       -1.3126254939  MEMB      81              0.0000000000
      9292        82  SAPE      N             -30.5317108979       21.6635226366       20.9826759084  MEMB      82              0.0000000000
      9293        82  SAPE      HN1           -30.1901294937       21.3018159542       20.0660305203  MEMB      82              0.0000000000
      9294        82  SAPE      HN2           -29.8594920957       21.4018672723       21.7374736830  MEMB      82              0.0000000000
      9295        82  SAPE      HN3           -31.4342175121       21.1744210639       21.1951162402  MEMB      82              0.0000000000
      9296        82  SAPE      C12           -30.6256050939       23.1793672925       20.9565829607  MEMB      82              0.0000000000
      9297        82  SAPE      H12A          -30.2994333815       23.5519384016       21.9479695119  MEMB      82              0.0000000000
      9298        82  SAPE      H12B          -31.6840947257       23.4693143486       20.7949216631  MEMB      82              0.0000000000
      9299        82  SAPE      C11           -29.7135847423       23.7784248641       19.8590083367  MEMB      82              0.0000000000
      9300        82  SAPE      H11A          -30.1333567831       23.5611813978       18.8536943159  MEMB      82              0.0000000000
      9301        82  SAPE      H11B          -28.7238342026       23.2734664993       19.9116673610  MEMB      82              0.0000000000
      9302        82  SAPE      P             -30.4955330857       26.3197683571       20.2497758957  MEMB      82              0.0000000000
      9303        82  SAPE      O13           -30.6907722404       26.4486037845       21.7090557852  MEMB      82              0.0000000000
      9304        82  SAPE      O14           -30.0890726962       27.5464706695       19.5198006926  MEMB      82              0.0000000000
      9305        82  SAPE      O12           -29.4528097487       25.1681863954       20.0122676653  MEMB      82              0.0000000000
      9306        82  SAPE      O11           -31.8223673196       25.7192231816       19.6437607049  MEMB      82              0.0000000000
      9307        82  SAPE      C1            -32.7337932704       26.5226252348       18.8837141590  MEMB      82              0.0000000000
      9308        82  SAPE      HA            -33.3268537814       27.1820959683       19.5539809303  MEMB      82              0.0000000000
      9309        82  SAPE      HB            -32.1889722064       27.1637531793       18.1529515322  MEMB      82              0.0000000000
      9310        82  SAPE      C2            -33.7423000053       25.6890104614       18.0332236692  MEMB      82              0.0000000000
      9311        82  SAPE      HS            -34.3074000194       24.9905930999       18.6921709456  MEMB      82              0.0000000000
      9312        82  SAPE      O21           -33.0444959854       24.9930688309       17.0063446850  MEMB      82              0.0000000000
      9313        82  SAPE      C21           -32.4873583651       23.8884870504       17.3820847974  MEMB      82              0.0000000000
      9314        82  SAPE      O22           -32.6416569847       23.2897062326       18.4347955127  MEMB      82              0.0000000000
      9315        82  SAPE      C22           -31.6544582063       23.3800389773       16.2194875958  MEMB      82              0.0000000000
      9316        82  SAPE      H2R           -31.4306209027       24.2606073381       15.5822799389  MEMB      82              0.0000000000
      9317        82  SAPE      H2S           -30.6911967814       22.9853082411       16.6056119090  MEMB      82              0.0000000000
      9318        82  SAPE      C3            -34.7655629604       26.5966638246       17.3164974257  MEMB      82              0.0000000000
      9319        82  SAPE      HX            -35.4235868955       27.0389455719       18.0965326360  MEMB      82              0.0000000000
      9320        82  SAPE      HY            -35.4005173833       25.9643917633       16.6508689879  MEMB      82              0.0000000000
      9321        82  SAPE      O31           -34.0765203964       27.6557279060       16.6236094393  MEMB      82              0.0000000000
      9322        82  SAPE      C31           -33.8388003568       27.5163453691       15.3314223563  MEMB      82              0.0000000000
      9323        82  SAPE      O32           -34.2962765719       26.6789052744       14.5825067496  MEMB      82              0.0000000000
      9324        82  SAPE      C32           -32.9446203662       28.6576672494       14.8461159089  MEMB      82              0.0000000000
      9325        82  SAPE      H2X           -33.4602409784       29.6127456564       15.0783046864  MEMB      82              0.0000000000
      9326        82  SAPE      H2Y           -32.8611586897       28.5584045120       13.7433080147  MEMB      82              0.0000000000
      9327        82  SAPE      C23           -32.4201404486       22.2446848570       15.4835655006  MEMB      82              0.0000000000
      9328        82  SAPE      H3R           -33.4849610603       22.2358024784       15.7778557262  MEMB      82              0.0000000000
      9329        82  SAPE      H3S           -31.9648893607       21.3217694721       15.8702529277  MEMB      82              0.0000000000
      9330        82  SAPE      C24           -32.3440274618       22.1328645404       13.9539421808  MEMB      82              0.0000000000
      9331        82  SAPE      H4R           -33.2278780809       22.5816167590       13.4573717934  MEMB      82              0.0000000000
      9332        82  SAPE      H4S           -32.3379628996       21.0631991085       13.6654814399  MEMB      82              0.0000000000
      9333        82  SAPE      C25           -31.1097879018       22.8517959950       13.5597297261  MEMB      82              0.0000000000
      9334        82  SAPE      H5R           -30.2544754193       22.7446410970       14.2404583290  MEMB      82              0.0000000000
      9335        82  SAPE      C26           -30.9517516110       23.5667024298       12.4639023950  MEMB      82              0.0000000000
      9336        82  SAPE      H6R           -30.2372103199       24.3592117706       12.5878836884  MEMB      82              0.0000000000
      9337        82  SAPE      C27           -31.9023131554       23.8325206445       11.3538130285  MEMB      82              0.0000000000
      9338        82  SAPE      H7R           -32.7389265767       23.1070026433       11.3537407483  MEMB      82              0.0000000000
      9339        82  SAPE      H7S           -31.3605341519       23.5882884053       10.4207967927  MEMB      82              0.0000000000
      9340        82  SAPE      C28           -32.4200172462       25.2342888182       11.2921991946  MEMB      82              0.0000000000
      9341        82  SAPE      H8R           -32.1979466799       25.9333423707       12.1147414307  MEMB      82              0.0000000000
      9342        82  SAPE      C29           -33.2104876686       25.5925425983       10.2860822603  MEMB      82              0.0000000000
      9343        82  SAPE      H9R           -33.6727903191       26.5859792125       10.2796498231  MEMB      82              0.0000000000
      9344        82  SAPE      C210          -33.6314580478       24.6679131833        9.1808666689  MEMB      82              0.0000000000
      9345        82  SAPE      H10R          -32.8806275330       23.8995803774        8.8889778206  MEMB      82              0.0000000000
      9346        82  SAPE      H10S          -33.7419806429       25.3563482504        8.3282960689  MEMB      82              0.0000000000
      9347        82  SAPE      C211          -34.9545662052       24.0554667520        9.5689238303  MEMB      82              0.0000000000
      9348        82  SAPE      H11R          -35.6355573817       24.8238830808        9.9683264857  MEMB      82              0.0000000000
      9349        82  SAPE      C212          -35.4378073999       22.7994576937        9.6149469314  MEMB      82              0.0000000000
      9350        82  SAPE      H12R          -36.4319129124       22.6920606776       10.0658671574  MEMB      82              0.0000000000
      9351        82  SAPE      C213          -34.8380661867       21.4649347602        9.2925479681  MEMB      82              0.0000000000
      9352        82  SAPE      H13R          -35.6079332467       20.6878267568        9.5052080698  MEMB      82              0.0000000000
      9353        82  SAPE      H13S          -34.0383783910       21.2638171742       10.0317670773  MEMB      82              0.0000000000
      9354        82  SAPE      C214          -34.3044042492       21.2233282232        7.9116897725  MEMB      82              0.0000000000
      9355        82  SAPE      H14R          -33.2100035087       21.2954674756        7.8375272904  MEMB      82              0.0000000000
      9356        82  SAPE      C215          -34.9859900594       21.1359986852        6.7597610350  MEMB      82              0.0000000000
      9357        82  SAPE      H15R          -34.3802492450       21.0049353517        5.8604014706  MEMB      82              0.0000000000
      9358        82  SAPE      C216          -36.4728381328       21.2600349314        6.4817052822  MEMB      82              0.0000000000
      9359        82  SAPE      H16R          -37.0124115539       21.2101846589        7.4416700308  MEMB      82              0.0000000000
      9360        82  SAPE      H16S          -36.9108737854       20.4575941028        5.8513046088  MEMB      82              0.0000000000
      9361        82  SAPE      C217          -36.6603329946       22.6658483771        5.8633603536  MEMB      82              0.0000000000
      9362        82  SAPE      H17R          -35.6722104033       23.0807807843        5.6354088446  MEMB      82              0.0000000000
      9363        82  SAPE      H17S          -37.0624884160       23.3116186779        6.6693765600  MEMB      82              0.0000000000
      9364        82  SAPE      C218          -37.4219134789       22.9549360626        4.5433898254  MEMB      82              0.0000000000
      9365        82  SAPE      H18R          -38.3107654404       23.4725755175        4.9215009741  MEMB      82              0.0000000000
      9366        82  SAPE      H18S          -37.8187728051       22.0928173519        3.9947285899  MEMB      82              0.0000000000
      9367        82  SAPE      C219          -36.7391804133       24.0097323833        3.6147443856  MEMB      82              0.0000000000
      9368        82  SAPE      H19R          -35.7218974373       24.1966640009        3.9720020457  MEMB      82              0.0000000000
      9369        82  SAPE      H19S          -37.3190079969       24.9624557110        3.6759090583  MEMB      82              0.0000000000
      9370        82  SAPE      C220          -36.3794705535       23.7251719757        2.1622581769  MEMB      82              0.0000000000
      9371        82  SAPE      H20R          -35.5536246666       23.0523819719        2.0109895900  MEMB      82              0.0000000000
      9372        82  SAPE      H20S          -35.9937867603       24.6608687299        1.7120169159  MEMB      82              0.0000000000
      9373        82  SAPE      H20T          -37.1856204980       23.2456984361        1.6018047564  MEMB      82              0.0000000000
      9374        82  SAPE      C33           -31.5481760632       28.6438036936       15.5030217451  MEMB      82              0.0000000000
      9375        82  SAPE      H3X           -31.6470829040       28.8332922840       16.5951655102  MEMB      82              0.0000000000
      9376        82  SAPE      H3Y           -30.9370025229       29.4717294896       15.0778224679  MEMB      82              0.0000000000
      9377        82  SAPE      C34           -30.7752027559       27.3373214955       15.3135576768  MEMB      82              0.0000000000
      9378        82  SAPE      H4X           -30.5825060551       27.1516002709       14.2348055360  MEMB      82              0.0000000000
      9379        82  SAPE      H4Y           -31.3935507095       26.4937884175       15.6927888326  MEMB      82              0.0000000000
      9380        82  SAPE      C35           -29.4569735064       27.3374426183       16.1036166612  MEMB      82              0.0000000000
      9381        82  SAPE      H5X           -29.6676211312       27.6999882684       17.1354555354  MEMB      82              0.0000000000
      9382        82  SAPE      H5Y           -28.7427013460       28.0568648206       15.6482649126  MEMB      82              0.0000000000
      9383        82  SAPE      C36           -28.8269379224       25.9390469398       16.2164868122  MEMB      82              0.0000000000
      9384        82  SAPE      H6X           -29.5314895728       25.2843664047       16.7815883603  MEMB      82              0.0000000000
      9385        82  SAPE      H6Y           -27.9003695158       26.0086246018       16.8266845143  MEMB      82              0.0000000000
      9386        82  SAPE      C37           -28.5140619457       25.2952011505       14.8529693245  MEMB      82              0.0000000000
      9387        82  SAPE      H7X           -29.4884890591       25.1456351317       14.3432585171  MEMB      82              0.0000000000
      9388        82  SAPE      H7Y           -28.0644638646       24.2926846043       15.0151006088  MEMB      82              0.0000000000
      9389        82  SAPE      C38           -27.5999084534       26.1716382381       13.9786423105  MEMB      82              0.0000000000
      9390        82  SAPE      H8X           -26.7056045256       26.4601439524       14.5746568164  MEMB      82              0.0000000000
      9391        82  SAPE      H8Y           -28.1493273717       27.1086603680       13.7305840519  MEMB      82              0.0000000000
      9392        82  SAPE      C39           -27.1183179986       25.5865973497       12.6342937066  MEMB      82              0.0000000000
      9393        82  SAPE      H9X           -26.3519205363       24.8007878517       12.8096024766  MEMB      82              0.0000000000
      9394        82  SAPE      H9Y           -26.6391243388       26.4465197942       12.1171662178  MEMB      82              0.0000000000
      9395        82  SAPE      C310          -28.2368355588       25.0417088403       11.7301187973  MEMB      82              0.0000000000
      9396        82  SAPE      H10X          -29.1104739094       25.7168522890       11.8860113483  MEMB      82              0.0000000000
      9397        82  SAPE      H10Y          -28.4361254561       24.0012347261       12.0800638313  MEMB      82              0.0000000000
      9398        82  SAPE      C311          -27.9796215205       25.0061770414       10.2162112704  MEMB      82              0.0000000000
      9399        82  SAPE      H11X          -27.3622478022       24.1114356334        9.9718189229  MEMB      82              0.0000000000
      9400        82  SAPE      H11Y          -27.4296714602       25.9363481163       10.0057388391  MEMB      82              0.0000000000
      9401        82  SAPE      C312          -29.1476236284       25.0711211991        9.2087328282  MEMB      82              0.0000000000
      9402        82  SAPE      H12X          -30.1093371756       24.7939651499        9.6535034530  MEMB      82              0.0000000000
      9403        82  SAPE      H12Y          -28.9221218390       24.3005624117        8.4352950227  MEMB      82              0.0000000000
      9404        82  SAPE      C313          -29.3083487295       26.4361117527        8.4974682645  MEMB      82              0.0000000000
      9405        82  SAPE      H13X          -28.5890682330       27.1713529861        8.9176199255  MEMB      82              0.0000000000
      9406        82  SAPE      H13Y          -30.3278730390       26.8378738586        8.6973788428  MEMB      82              0.0000000000
      9407        82  SAPE      C314          -29.1082058825       26.3688481006        6.9701313621  MEMB      82              0.0000000000
      9408        82  SAPE      H14X          -28.0813803870       25.9988959291        6.7541055191  MEMB      82              0.0000000000
      9409        82  SAPE      H14Y          -29.1821602618       27.3954209587        6.5459878727  MEMB      82              0.0000000000
      9410        82  SAPE      C315          -30.1458472919       25.4623881747        6.2903010131  MEMB      82              0.0000000000
      9411        82  SAPE      H15X          -31.1696715497       25.8121262928        6.5453737136  MEMB      82              0.0000000000
      9412        82  SAPE      H15Y          -30.0610086815       24.4464407953        6.7252891407  MEMB      82              0.0000000000
      9413        82  SAPE      C316          -30.0202801649       25.3570996332        4.7604756267  MEMB      82              0.0000000000
      9414        82  SAPE      H16X          -30.3916460725       24.3514917949        4.4542495370  MEMB      82              0.0000000000
      9415        82  SAPE      H16Y          -28.9595342452       25.4178088901        4.4353391221  MEMB      82              0.0000000000
      9416        82  SAPE      C317          -30.8937723066       26.4010917652        4.0507322389  MEMB      82              0.0000000000
      9417        82  SAPE      H17X          -30.3683141190       27.3811982703        4.0504643230  MEMB      82              0.0000000000
      9418        82  SAPE      H17Y          -31.8252180915       26.5303325570        4.6491191117  MEMB      82              0.0000000000
      9419        82  SAPE      C318          -31.3172208859       26.0158456172        2.6296505574  MEMB      82              0.0000000000
      9420        82  SAPE      H18X          -30.4379911138       25.9240807575        1.9582885742  MEMB      82              0.0000000000
      9421        82  SAPE      H18Y          -32.0056833038       26.7842940193        2.2152589497  MEMB      82              0.0000000000
      9422        82  SAPE      H18Z          -31.8559967539       25.0421852855        2.6419249715  MEMB      82              0.0000000000
      9423        83  OSM       N              13.9420398547       38.8364047236       22.2639431413  MEMB      83              0.0000000000
      9424        83  OSM       C15            12.9318905488       38.6113350410       21.1620433009  MEMB      83              0.0000000000
      9425        83  OSM       H15A           13.4084176836       38.0918480453       20.3329995135  MEMB      83              0.0000000000
      9426        83  OSM       H15B           12.5135056117       39.5397467329       20.8086117346  MEMB      83              0.0000000000
      9427        83  OSM       H15C           12.1240659307       37.9555041455       21.4833940820  MEMB      83              0.0000000000
      9428        83  OSM       C14            15.0919827261       39.6459887224       21.7095294162  MEMB      83              0.0000000000
      9429        83  OSM       H14A           15.4343239797       39.1854683762       20.7830808620  MEMB      83              0.0000000000
      9430        83  OSM       H14B           15.9587793879       39.7240868755       22.3606315327  MEMB      83              0.0000000000
      9431        83  OSM       H14C           14.8284677571       40.6752432647       21.4631743602  MEMB      83              0.0000000000
      9432        83  OSM       C13            13.2107488072       39.5959596074       23.3327328929  MEMB      83              0.0000000000
      9433        83  OSM       H13A           12.2882795021       39.1022691013       23.6236442866  MEMB      83              0.0000000000
      9434        83  OSM       H13B           12.9462901092       40.5889245497       22.9657455688  MEMB      83              0.0000000000
      9435        83  OSM       H13C           13.8291979437       39.7740054626       24.2029790847  MEMB      83              0.0000000000
      9436        83  OSM       C12            14.4250433567       37.4738613167       22.7473982246  MEMB      83              0.0000000000
      9437        83  OSM       H12A           13.5529460408       36.8287554431       22.8928614874  MEMB      83              0.0000000000
      9438        83  OSM       H12B           14.9134027654       37.5737576362       23.7069027431  MEMB      83              0.0000000000
      9439        83  OSM       C11            15.4108241847       36.7196780172       21.8205960692  MEMB      83              0.0000000000
      9440        83  OSM       H11A           15.7302310764       35.7690012490       22.3035947421  MEMB      83              0.0000000000
      9441        83  OSM       H11B           16.3366016211       37.3182636467       21.6748333784  MEMB      83              0.0000000000
      9442        83  OSM       P              13.9494886492       35.1913005769       20.3150330616  MEMB      83              0.0000000000
      9443        83  OSM       O13            14.6623540645       33.9426503958       20.6896280698  MEMB      83              0.0000000000
      9444        83  OSM       O14            12.6670474297       35.4875581596       20.9776457753  MEMB      83              0.0000000000
      9445        83  OSM       O11            13.7172250043       35.3197033915       18.7542010980  MEMB      83              0.0000000000
      9446        83  OSM       O12            14.8482504753       36.4726550859       20.5469204628  MEMB      83              0.0000000000
      9447        83  OSM       C1S            14.6316469271       36.0159321934       17.9021250127  MEMB      83              0.0000000000
      9448        83  OSM       H1S            15.5902899943       35.4557116816       17.8989815171  MEMB      83              0.0000000000
      9449        83  OSM       H1T            14.8269623663       37.0617223127       18.2435317865  MEMB      83              0.0000000000
      9450        83  OSM       NF             15.0051221180       36.5764294567       15.4577811679  MEMB      83              0.0000000000
      9451        83  OSM       HNF            14.6702109747       37.2949494177       14.8583106063  MEMB      83              0.0000000000
      9452        83  OSM       C2S            14.0610725226       36.1110847380       16.4494941529  MEMB      83              0.0000000000
      9453        83  OSM       H2S            13.7687045814       35.0817533762       16.1494899560  MEMB      83              0.0000000000
      9454        83  OSM       C3S            12.8134193983       37.0331674975       16.4185665506  MEMB      83              0.0000000000
      9455        83  OSM       H3S            13.1098891883       38.0731518091       16.6733416625  MEMB      83              0.0000000000
      9456        83  OSM       O3             11.7849324077       36.7022436588       17.3275127533  MEMB      83              0.0000000000
      9457        83  OSM       HO3            12.1720889459       36.0531590635       17.9338711385  MEMB      83              0.0000000000
      9458        83  OSM       C4S            12.1277190864       37.0095733597       15.0901124471  MEMB      83              0.0000000000
      9459        83  OSM       H4S            11.8485788725       35.9974963237       14.8035239198  MEMB      83              0.0000000000
      9460        83  OSM       C5S            11.8422927487       38.0417600212       14.2668898251  MEMB      83              0.0000000000
      9461        83  OSM       H5S            12.1410498448       39.0663695251       14.5461676420  MEMB      83              0.0000000000
      9462        83  OSM       C6S            11.1150820207       37.9045794649       12.9531492954  MEMB      83              0.0000000000
      9463        83  OSM       H6S            10.1976869584       38.5279822618       13.0405227433  MEMB      83              0.0000000000
      9464        83  OSM       H6T            10.7630388785       36.8605642031       12.7887162676  MEMB      83              0.0000000000
      9465        83  OSM       C7S            11.8261215200       38.3543151127       11.6648909610  MEMB      83              0.0000000000
      9466        83  OSM       H7S            12.5405652648       39.1735125546       11.8959730906  MEMB      83              0.0000000000
      9467        83  OSM       H7T            11.0595088717       38.7687395700       10.9641769850  MEMB      83              0.0000000000
      9468        83  OSM       C8S            12.4967417155       37.1781704991       10.9406621173  MEMB      83              0.0000000000
      9469        83  OSM       H8S            11.7034667635       36.4343787851       10.6964770897  MEMB      83              0.0000000000
      9470        83  OSM       H8T            13.2160320177       36.6842317056       11.6257848540  MEMB      83              0.0000000000
      9471        83  OSM       C9S            13.1763010087       37.5593914570        9.6151337763  MEMB      83              0.0000000000
      9472        83  OSM       H9S            12.3828944272       37.8656536602        8.8981286446  MEMB      83              0.0000000000
      9473        83  OSM       H9T            13.6807348906       36.6612222380        9.1931048187  MEMB      83              0.0000000000
      9474        83  OSM       C10S           14.2018118956       38.6926331424        9.7536453370  MEMB      83              0.0000000000
      9475        83  OSM       H10S           14.9511900949       38.3924823878       10.5194723565  MEMB      83              0.0000000000
      9476        83  OSM       H10T           13.6866636096       39.6033841392       10.1302016121  MEMB      83              0.0000000000
      9477        83  OSM       C11S           14.9299134427       39.0710495867        8.4489775436  MEMB      83              0.0000000000
      9478        83  OSM       H11S           15.6420041434       38.2634191559        8.1708667981  MEMB      83              0.0000000000
      9479        83  OSM       H11T           15.5238599713       39.9934632329        8.6484761958  MEMB      83              0.0000000000
      9480        83  OSM       C12S           14.0041686137       39.3239240117        7.2474654479  MEMB      83              0.0000000000
      9481        83  OSM       H12S           13.0818256212       39.8432645826        7.5934925818  MEMB      83              0.0000000000
      9482        83  OSM       H12T           13.6974297591       38.3325639403        6.8437601877  MEMB      83              0.0000000000
      9483        83  OSM       C13S           14.6698554663       40.1662012205        6.1385112637  MEMB      83              0.0000000000
      9484        83  OSM       H13S           15.7297240753       40.3397077161        6.4188802898  MEMB      83              0.0000000000
      9485        83  OSM       H13T           14.1741436737       41.1635388788        6.0991968553  MEMB      83              0.0000000000
      9486        83  OSM       C14S           14.6410967919       39.5298272011        4.7339903115  MEMB      83              0.0000000000
      9487        83  OSM       H14S           15.0908895471       38.5147913345        4.7773618629  MEMB      83              0.0000000000
      9488        83  OSM       H14T           15.2473523026       40.1480844640        4.0326041400  MEMB      83              0.0000000000
      9489        83  OSM       C15S           13.2061971468       39.4192881601        4.2147704242  MEMB      83              0.0000000000
      9490        83  OSM       H15S           12.8044015391       40.4463395313        4.1286314930  MEMB      83              0.0000000000
      9491        83  OSM       H15T           12.6479136064       38.8908693577        5.0131401993  MEMB      83              0.0000000000
      9492        83  OSM       C16S           12.9625499312       38.6223490676        2.9217455922  MEMB      83              0.0000000000
      9493        83  OSM       H16S           12.0705217357       38.9898917696        2.3868849578  MEMB      83              0.0000000000
      9494        83  OSM       H16T           12.6739218589       37.5959904095        3.2159959792  MEMB      83              0.0000000000
      9495        83  OSM       C17S           14.1306350920       38.6172313700        1.9387604101  MEMB      83              0.0000000000
      9496        83  OSM       H17S           14.9712138500       38.0743208242        2.4163466385  MEMB      83              0.0000000000
      9497        83  OSM       H17T           14.4683878897       39.6628884205        1.7607275859  MEMB      83              0.0000000000
      9498        83  OSM       C18S           13.8056642166       37.9547258006        0.5991451506  MEMB      83              0.0000000000
      9499        83  OSM       H18S           13.3116160483       38.6808883059       -0.0779998886  MEMB      83              0.0000000000
      9500        83  OSM       H18T           13.1285654659       37.0826445842        0.7427821084  MEMB      83              0.0000000000
      9501        83  OSM       H18U           14.7361983193       37.5980190136        0.1074781083  MEMB      83              0.0000000000
      9502        83  OSM       C1F            16.2164857795       36.0974748395       15.2018198552  MEMB      83              0.0000000000
      9503        83  OSM       OF             16.7115306506       35.1886457625       15.8376695325  MEMB      83              0.0000000000
      9504        83  OSM       C2F            16.9584452586       36.7801628761       14.1098323699  MEMB      83              0.0000000000
      9505        83  OSM       H2F            17.9423755075       37.1230383204       14.5074223460  MEMB      83              0.0000000000
      9506        83  OSM       H2G            16.3949116283       37.6526948582       13.7234660554  MEMB      83              0.0000000000
      9507        83  OSM       C3F            17.1792537744       35.8914556834       12.8903838696  MEMB      83              0.0000000000
      9508        83  OSM       H3F            17.8009168928       35.0382268307       13.1859551491  MEMB      83              0.0000000000
      9509        83  OSM       H3G            17.7926994452       36.5104112167       12.2052659679  MEMB      83              0.0000000000
      9510        83  OSM       C4F            15.9247132103       35.4672212798       12.1028232139  MEMB      83              0.0000000000
      9511        83  OSM       H4F            15.1254977517       36.2212941191       12.2938118065  MEMB      83              0.0000000000
      9512        83  OSM       H4G            15.5420907067       34.4995019607       12.4918991902  MEMB      83              0.0000000000
      9513        83  OSM       C5F            16.2738763027       35.4387124084       10.5896360779  MEMB      83              0.0000000000
      9514        83  OSM       H5F            17.3731285827       35.2707793867       10.4562257053  MEMB      83              0.0000000000
      9515        83  OSM       H5G            16.0874959891       36.4774136501       10.2165688881  MEMB      83              0.0000000000
      9516        83  OSM       C6F            15.5342453175       34.4421854698        9.6480159434  MEMB      83              0.0000000000
      9517        83  OSM       H6F            15.8704985261       34.7194104032        8.6240368516  MEMB      83              0.0000000000
      9518        83  OSM       H6G            14.4402632171       34.6154544183        9.6850099197  MEMB      83              0.0000000000
      9519        83  OSM       C7F            15.8729719905       32.9384320049        9.8328555701  MEMB      83              0.0000000000
      9520        83  OSM       H7F            15.6385983640       32.6711341263       10.8865772941  MEMB      83              0.0000000000
      9521        83  OSM       H7G            16.9476306552       32.7966597931        9.6906553740  MEMB      83              0.0000000000
      9522        83  OSM       C8F            15.2682616346       31.8515158009        8.8843758756  MEMB      83              0.0000000000
      9523        83  OSM       H8F            14.1766868309       31.9144252378        8.8580238565  MEMB      83              0.0000000000
      9524        83  OSM       H8G            15.4765429776       30.8730919701        9.3772051072  MEMB      83              0.0000000000
      9525        83  OSM       C9F            15.7029481160       31.7424032504        7.4531674806  MEMB      83              0.0000000000
      9526        83  OSM       H9F            16.4948902154       31.0062637387        7.2323454675  MEMB      83              0.0000000000
      9527        83  OSM       C10F           15.1089749515       32.4134248264        6.4566247846  MEMB      83              0.0000000000
      9528        83  OSM       H10F           15.4964081754       32.2611767411        5.4390638408  MEMB      83              0.0000000000
      9529        83  OSM       C11F           13.9391709396       33.3674149728        6.6479520097  MEMB      83              0.0000000000
      9530        83  OSM       H11F           14.3311152776       34.2693606880        7.1697698014  MEMB      83              0.0000000000
      9531        83  OSM       H11G           13.1581477125       32.9305341625        7.3098409684  MEMB      83              0.0000000000
      9532        83  OSM       C12F           13.2306584692       33.9027620816        5.3789050816  MEMB      83              0.0000000000
      9533        83  OSM       H12F           12.6809064776       34.8319794518        5.6560500113  MEMB      83              0.0000000000
      9534        83  OSM       H12G           12.4876675968       33.1743319073        5.0007285063  MEMB      83              0.0000000000
      9535        83  OSM       C13F           14.2813825224       34.1868909698        4.3101115819  MEMB      83              0.0000000000
      9536        83  OSM       H13F           14.6596454958       33.2185501647        3.9135589950  MEMB      83              0.0000000000
      9537        83  OSM       H13G           15.0930018638       34.7092899626        4.8666251958  MEMB      83              0.0000000000
      9538        83  OSM       C14F           13.9407418142       35.0340683229        3.0903887896  MEMB      83              0.0000000000
      9539        83  OSM       H14F           13.7656187763       36.0632199125        3.4444289344  MEMB      83              0.0000000000
      9540        83  OSM       H14G           13.0317521438       34.6685889079        2.5688603341  MEMB      83              0.0000000000
      9541        83  OSM       C15F           15.1488072951       35.0385120074        2.1360767319  MEMB      83              0.0000000000
      9542        83  OSM       H15F           14.9161063038       35.6246392339        1.2242830709  MEMB      83              0.0000000000
      9543        83  OSM       H15G           15.3490425760       33.9923310169        1.8135035461  MEMB      83              0.0000000000
      9544        83  OSM       C16F           16.4049383595       35.6116272922        2.8147174258  MEMB      83              0.0000000000
      9545        83  OSM       H16F           16.6603235010       35.0372106046        3.7293553279  MEMB      83              0.0000000000
      9546        83  OSM       H16G           16.2173027046       36.6575367597        3.1368034110  MEMB      83              0.0000000000
      9547        83  OSM       C17F           17.6661233632       35.5724054824        1.9644757909  MEMB      83              0.0000000000
      9548        83  OSM       H17F           17.4987977114       36.1293881278        1.0180355581  MEMB      83              0.0000000000
      9549        83  OSM       H17G           17.8724076699       34.5193043695        1.7032821775  MEMB      83              0.0000000000
      9550        83  OSM       C18F           18.8562656877       36.1410467257        2.7306423822  MEMB      83              0.0000000000
      9551        83  OSM       H18F           18.5411445638       37.0832493996        3.2183868935  MEMB      83              0.0000000000
      9552        83  OSM       H18G           19.7177032589       36.3477927737        2.0610515515  MEMB      83              0.0000000000
      9553        83  OSM       H18H           19.1845214614       35.4628683486        3.5417171087  MEMB      83              0.0000000000
      9554        84  CHL1      C3             26.6939937388      -28.9578712627       17.9963633254  MEMB      84              0.0000000000
      9555        84  CHL1      H3             26.8722944260      -30.0518203422       17.8743086826  MEMB      84              0.0000000000
      9556        84  CHL1      O3             26.8653444898      -28.6399239148       19.3639535003  MEMB      84              0.0000000000
      9557        84  CHL1      H3'            26.2233641288      -29.1901957896       19.8266015860  MEMB      84              0.0000000000
      9558        84  CHL1      C4             27.7372959340      -28.1800050863       17.1879664225  MEMB      84              0.0000000000
      9559        84  CHL1      H4A            27.6976807590      -27.1135934986       17.4952837562  MEMB      84              0.0000000000
      9560        84  CHL1      H4B            28.7312855770      -28.5712150976       17.5153659262  MEMB      84              0.0000000000
      9561        84  CHL1      C5             27.5419543229      -28.2782226137       15.6908935695  MEMB      84              0.0000000000
      9562        84  CHL1      C6             28.5437242077      -28.6515751985       14.8928688071  MEMB      84              0.0000000000
      9563        84  CHL1      H6             29.5303421247      -28.8772956058       15.3208955259  MEMB      84              0.0000000000
      9564        84  CHL1      C7             28.4174457661      -28.7195616359       13.4064173876  MEMB      84              0.0000000000
      9565        84  CHL1      H7A            29.2902846567      -28.2379485826       12.9206239963  MEMB      84              0.0000000000
      9566        84  CHL1      H7B            28.4125194086      -29.7988965790       13.1390119124  MEMB      84              0.0000000000
      9567        84  CHL1      C8             27.1274782920      -28.1006820386       12.8112898082  MEMB      84              0.0000000000
      9568        84  CHL1      H8             27.2407227375      -26.9973923121       12.7339819895  MEMB      84              0.0000000000
      9569        84  CHL1      C14            26.8943096948      -28.7105695812       11.4428939815  MEMB      84              0.0000000000
      9570        84  CHL1      H14            26.7009549389      -29.7983856264       11.6554742393  MEMB      84              0.0000000000
      9571        84  CHL1      C15            28.0854437321      -28.7288032742       10.4897695287  MEMB      84              0.0000000000
      9572        84  CHL1      H15A           28.5646913296      -27.7281042230       10.4391511825  MEMB      84              0.0000000000
      9573        84  CHL1      H15B           28.7811880606      -29.4891580975       10.8723790389  MEMB      84              0.0000000000
      9574        84  CHL1      C16            27.4941136684      -29.1579912508        9.1507668233  MEMB      84              0.0000000000
      9575        84  CHL1      H16A           27.8665519011      -28.4868204030        8.3547335389  MEMB      84              0.0000000000
      9576        84  CHL1      H16B           27.7947016961      -30.1988823459        8.9027141911  MEMB      84              0.0000000000
      9577        84  CHL1      C17            25.9512153411      -29.1030375290        9.3571951339  MEMB      84              0.0000000000
      9578        84  CHL1      H17            25.6800445427      -30.1441175139        9.6771640454  MEMB      84              0.0000000000
      9579        84  CHL1      C13            25.6866425508      -28.2620336802       10.6408427820  MEMB      84              0.0000000000
      9580        84  CHL1      C18            25.7528650388      -26.7701863040       10.2630110721  MEMB      84              0.0000000000
      9581        84  CHL1      H18A           26.6025911671      -26.5688349514        9.5799057755  MEMB      84              0.0000000000
      9582        84  CHL1      H18B           24.8223187373      -26.5004802732        9.7243820863  MEMB      84              0.0000000000
      9583        84  CHL1      H18C           25.8363315644      -26.1186926518       11.1526581361  MEMB      84              0.0000000000
      9584        84  CHL1      C12            24.4575428739      -28.5784688121       11.5265198334  MEMB      84              0.0000000000
      9585        84  CHL1      H12A           23.5315061678      -28.1595723138       11.0930310617  MEMB      84              0.0000000000
      9586        84  CHL1      H12B           24.3387828342      -29.6808889347       11.5835864112  MEMB      84              0.0000000000
      9587        84  CHL1      C11            24.6144278254      -28.0177801425       12.9664168356  MEMB      84              0.0000000000
      9588        84  CHL1      H11A           24.5990073161      -26.9109480230       12.9046804500  MEMB      84              0.0000000000
      9589        84  CHL1      H11B           23.7438190716      -28.3665868582       13.5547469036  MEMB      84              0.0000000000
      9590        84  CHL1      C9             25.9313882618      -28.4375187065       13.6790635960  MEMB      84              0.0000000000
      9591        84  CHL1      H9             25.8902150309      -29.5520322362       13.7059261861  MEMB      84              0.0000000000
      9592        84  CHL1      C10            26.1209526224      -27.9976740445       15.1628915394  MEMB      84              0.0000000000
      9593        84  CHL1      C19            25.9279767648      -26.4653057400       15.2872162879  MEMB      84              0.0000000000
      9594        84  CHL1      H19A           26.6980061539      -25.9202251132       14.6993705931  MEMB      84              0.0000000000
      9595        84  CHL1      H19B           24.9333812755      -26.1574436814       14.9267661918  MEMB      84              0.0000000000
      9596        84  CHL1      H19C           26.0207432212      -26.1327375474       16.3428350893  MEMB      84              0.0000000000
      9597        84  CHL1      C1             25.1083849480      -28.7873703877       16.0389140117  MEMB      84              0.0000000000
      9598        84  CHL1      H1A            24.0854594440      -28.5040755528       15.7362383353  MEMB      84              0.0000000000
      9599        84  CHL1      H1B            25.2331914378      -29.8739028672       15.8274960469  MEMB      84              0.0000000000
      9600        84  CHL1      C2             25.2652155221      -28.6042764941       17.5597668814  MEMB      84              0.0000000000
      9601        84  CHL1      H2A            24.5493229995      -29.2707894183       18.0891305653  MEMB      84              0.0000000000
      9602        84  CHL1      H2B            25.0245635405      -27.5546324716       17.8407188023  MEMB      84              0.0000000000
      9603        84  CHL1      C20            25.1560071269      -28.9053048188        8.0615043050  MEMB      84              0.0000000000
      9604        84  CHL1      H20            25.4357116501      -29.7786063605        7.4201540532  MEMB      84              0.0000000000
      9605        84  CHL1      C21            25.5157553082      -27.6632062068        7.1948691934  MEMB      84              0.0000000000
      9606        84  CHL1      H21A           24.8894284228      -26.7957733991        7.4803833810  MEMB      84              0.0000000000
      9607        84  CHL1      H21B           25.2980299493      -27.8997131039        6.1282356651  MEMB      84              0.0000000000
      9608        84  CHL1      H21C           26.5752438435      -27.3594404120        7.2414608144  MEMB      84              0.0000000000
      9609        84  CHL1      C22            23.6444652933      -29.0229343706        8.3247268702  MEMB      84              0.0000000000
      9610        84  CHL1      H22A           23.4441009325      -30.0127588497        8.7971475852  MEMB      84              0.0000000000
      9611        84  CHL1      H22B           23.3401966305      -28.2353653686        9.0331253879  MEMB      84              0.0000000000
      9612        84  CHL1      C23            22.7904529650      -28.8963643573        7.0711488307  MEMB      84              0.0000000000
      9613        84  CHL1      H23A           21.7630868395      -28.5886819755        7.3455707293  MEMB      84              0.0000000000
      9614        84  CHL1      H23B           23.1579518716      -28.0790108885        6.4222515676  MEMB      84              0.0000000000
      9615        84  CHL1      C24            22.8007104729      -30.2239704887        6.3269065256  MEMB      84              0.0000000000
      9616        84  CHL1      H24A           23.8562677072      -30.5305934309        6.1495574605  MEMB      84              0.0000000000
      9617        84  CHL1      H24B           22.3432423928      -31.0155824072        6.9581261363  MEMB      84              0.0000000000
      9618        84  CHL1      C25            22.1005157908      -30.1821732416        4.9731474735  MEMB      84              0.0000000000
      9619        84  CHL1      H25            21.0135750759      -29.9920816123        5.1138426208  MEMB      84              0.0000000000
      9620        84  CHL1      C26            22.6782172099      -29.0987176702        4.0750643791  MEMB      84              0.0000000000
      9621        84  CHL1      H26A           22.3849488775      -29.2763891345        3.0200038785  MEMB      84              0.0000000000
      9622        84  CHL1      H26B           22.2838788959      -28.1122602221        4.3840530661  MEMB      84              0.0000000000
      9623        84  CHL1      H26C           23.7826040171      -29.0716058993        4.1583871402  MEMB      84              0.0000000000
      9624        84  CHL1      C27            22.2489619357      -31.5421107981        4.3279323731  MEMB      84              0.0000000000
      9625        84  CHL1      H27A           21.6131819889      -32.2421713841        4.8994845896  MEMB      84              0.0000000000
      9626        84  CHL1      H27B           21.9181026584      -31.5349780784        3.2699695530  MEMB      84              0.0000000000
      9627        84  CHL1      H27C           23.3040052368      -31.8856497153        4.3867929867  MEMB      84              0.0000000000
      9628        85  SAPE      N             -20.7415426669       36.6031740814       20.1506491086  MEMB      85              0.0000000000
      9629        85  SAPE      HN1           -19.8553806463       36.3321960976       20.6375715912  MEMB      85              0.0000000000
      9630        85  SAPE      HN2           -20.7520604121       37.6307455581       19.9106767939  MEMB      85              0.0000000000
      9631        85  SAPE      HN3           -21.5038541220       36.4676398561       20.8412573809  MEMB      85              0.0000000000
      9632        85  SAPE      C12           -21.0258627394       35.7572866333       18.9474253073  MEMB      85              0.0000000000
      9633        85  SAPE      H12A          -20.0474658513       35.5158185098       18.4884311890  MEMB      85              0.0000000000
      9634        85  SAPE      H12B          -21.6282898720       36.3625271544       18.2380236284  MEMB      85              0.0000000000
      9635        85  SAPE      C11           -21.7962519977       34.4808894726       19.3320929319  MEMB      85              0.0000000000
      9636        85  SAPE      H11A          -21.8307377968       33.8070787122       18.4431869952  MEMB      85              0.0000000000
      9637        85  SAPE      H11B          -22.8503114802       34.7532343051       19.5693190943  MEMB      85              0.0000000000
      9638        85  SAPE      P             -19.9283951629       32.9720695115       20.4677079103  MEMB      85              0.0000000000
      9639        85  SAPE      O13           -18.9401469346       33.7816343358       21.2348436650  MEMB      85              0.0000000000
      9640        85  SAPE      O14           -20.2007487247       31.5855487798       20.9112998694  MEMB      85              0.0000000000
      9641        85  SAPE      O12           -21.2584316921       33.8251832532       20.4766144751  MEMB      85              0.0000000000
      9642        85  SAPE      O11           -19.5927184496       32.9705967905       18.9491348714  MEMB      85              0.0000000000
      9643        85  SAPE      C1            -18.4262119657       32.6523836867       18.2174693183  MEMB      85              0.0000000000
      9644        85  SAPE      HA            -17.5332236590       32.5157732780       18.8655156605  MEMB      85              0.0000000000
      9645        85  SAPE      HB            -18.6262356508       31.7088538084       17.6563627064  MEMB      85              0.0000000000
      9646        85  SAPE      C2            -18.1635009225       33.7390638475       17.1383401959  MEMB      85              0.0000000000
      9647        85  SAPE      HS            -17.6380467241       34.5906557403       17.6322772180  MEMB      85              0.0000000000
      9648        85  SAPE      O21           -19.4439604968       34.1596683195       16.6348958192  MEMB      85              0.0000000000
      9649        85  SAPE      C21           -19.4043936957       35.1063231162       15.7371353301  MEMB      85              0.0000000000
      9650        85  SAPE      O22           -18.5212474482       35.9362720889       15.6151380187  MEMB      85              0.0000000000
      9651        85  SAPE      C22           -20.6201381631       34.9121035058       14.8324752085  MEMB      85              0.0000000000
      9652        85  SAPE      H2R           -20.6527977062       33.8279050299       14.5966946474  MEMB      85              0.0000000000
      9653        85  SAPE      H2S           -21.5195409543       35.1971364553       15.4100721469  MEMB      85              0.0000000000
      9654        85  SAPE      C3            -17.2527574253       33.2400070252       15.9751517046  MEMB      85              0.0000000000
      9655        85  SAPE      HX            -16.3826723370       32.7061409606       16.4145512646  MEMB      85              0.0000000000
      9656        85  SAPE      HY            -16.8601368958       34.1592375311       15.4724163503  MEMB      85              0.0000000000
      9657        85  SAPE      O31           -17.9833099748       32.3828157065       15.0458916723  MEMB      85              0.0000000000
      9658        85  SAPE      C31           -17.3372539674       32.3260075233       13.8614733451  MEMB      85              0.0000000000
      9659        85  SAPE      O32           -16.2309634626       32.7909738148       13.6729016005  MEMB      85              0.0000000000
      9660        85  SAPE      C32           -18.0552001337       31.5577661132       12.7652336133  MEMB      85              0.0000000000
      9661        85  SAPE      H2X           -19.1235629238       31.4094776784       13.0097189746  MEMB      85              0.0000000000
      9662        85  SAPE      H2Y           -17.5570947297       30.5627336323       12.7323439270  MEMB      85              0.0000000000
      9663        85  SAPE      C23           -20.5355673554       35.7031269175       13.5212842677  MEMB      85              0.0000000000
      9664        85  SAPE      H3R           -19.6346073510       35.3890193469       12.9532029507  MEMB      85              0.0000000000
      9665        85  SAPE      H3S           -20.4104366208       36.7879443325       13.7686370963  MEMB      85              0.0000000000
      9666        85  SAPE      C24           -21.7619836444       35.5662841702       12.5960752959  MEMB      85              0.0000000000
      9667        85  SAPE      H4R           -21.6276874345       36.4168399755       11.8988882321  MEMB      85              0.0000000000
      9668        85  SAPE      H4S           -22.6924440041       35.7838789796       13.1611053329  MEMB      85              0.0000000000
      9669        85  SAPE      C25           -21.9053641103       34.2883853101       11.8067289642  MEMB      85              0.0000000000
      9670        85  SAPE      H5R           -21.9897133716       33.3608625699       12.3949529861  MEMB      85              0.0000000000
      9671        85  SAPE      C26           -21.9119277501       34.1977106415       10.4618802576  MEMB      85              0.0000000000
      9672        85  SAPE      H6R           -21.9669479897       33.2031332740        9.9893980643  MEMB      85              0.0000000000
      9673        85  SAPE      C27           -21.7800708392       35.3444518348        9.4947226185  MEMB      85              0.0000000000
      9674        85  SAPE      H7R           -21.3466615870       36.2511102097        9.9632193320  MEMB      85              0.0000000000
      9675        85  SAPE      H7S           -22.8334657713       35.5213112711        9.2517553319  MEMB      85              0.0000000000
      9676        85  SAPE      C28           -21.1646837171       35.2638859434        8.1443652058  MEMB      85              0.0000000000
      9677        85  SAPE      H8R           -20.1343599649       35.6468926017        8.0385578431  MEMB      85              0.0000000000
      9678        85  SAPE      C29           -21.7559898577       34.6570797769        7.1217955139  MEMB      85              0.0000000000
      9679        85  SAPE      H9R           -21.1734341854       34.5327743492        6.2102322572  MEMB      85              0.0000000000
      9680        85  SAPE      C210          -23.0884785195       33.9693684995        7.1073208430  MEMB      85              0.0000000000
      9681        85  SAPE      H10R          -23.8096431076       34.4549876574        7.7976998535  MEMB      85              0.0000000000
      9682        85  SAPE      H10S          -22.9639745998       32.9111071468        7.4109044885  MEMB      85              0.0000000000
      9683        85  SAPE      C211          -23.6584305799       34.0170633669        5.7292227055  MEMB      85              0.0000000000
      9684        85  SAPE      H11R          -24.6135208946       34.5537696307        5.6766573698  MEMB      85              0.0000000000
      9685        85  SAPE      C212          -23.1707837590       33.4420000372        4.6234416244  MEMB      85              0.0000000000
      9686        85  SAPE      H12R          -23.5675195789       33.7495100182        3.6422820756  MEMB      85              0.0000000000
      9687        85  SAPE      C213          -21.9241027486       32.6141753114        4.5659513054  MEMB      85              0.0000000000
      9688        85  SAPE      H13R          -21.2681518085       32.7630347676        5.4370169509  MEMB      85              0.0000000000
      9689        85  SAPE      H13S          -21.3382678458       32.9667058012        3.6876960751  MEMB      85              0.0000000000
      9690        85  SAPE      C214          -22.1750939902       31.1400652033        4.4996807093  MEMB      85              0.0000000000
      9691        85  SAPE      H14R          -22.0431441226       30.5777212188        5.4381037451  MEMB      85              0.0000000000
      9692        85  SAPE      C215          -22.5302879355       30.5175183647        3.3724192182  MEMB      85              0.0000000000
      9693        85  SAPE      H15R          -22.6225993012       29.4238886229        3.3558884256  MEMB      85              0.0000000000
      9694        85  SAPE      C216          -22.7154647842       31.2412453268        2.0685374193  MEMB      85              0.0000000000
      9695        85  SAPE      H16R          -23.0208288937       32.3016167452        2.2157096799  MEMB      85              0.0000000000
      9696        85  SAPE      H16S          -23.5329897525       30.7759259782        1.4932253402  MEMB      85              0.0000000000
      9697        85  SAPE      C217          -21.4089532897       31.2975182701        1.2769904206  MEMB      85              0.0000000000
      9698        85  SAPE      H17R          -20.6329839861       31.7307518606        1.9479593890  MEMB      85              0.0000000000
      9699        85  SAPE      H17S          -21.5419285201       31.9897336943        0.4217826737  MEMB      85              0.0000000000
      9700        85  SAPE      C218          -20.9485257302       29.9477336508        0.7304969746  MEMB      85              0.0000000000
      9701        85  SAPE      H18R          -21.7345070984       29.5375114365        0.0647130022  MEMB      85              0.0000000000
      9702        85  SAPE      H18S          -20.8917737286       29.2363373313        1.5737658392  MEMB      85              0.0000000000
      9703        85  SAPE      C219          -19.5990619428       30.0033815555       -0.0128576533  MEMB      85              0.0000000000
      9704        85  SAPE      H19R          -19.7705094557       30.0576541909       -1.1112074046  MEMB      85              0.0000000000
      9705        85  SAPE      H19S          -19.0962322622       29.0346039078        0.1832740938  MEMB      85              0.0000000000
      9706        85  SAPE      C220          -18.6639298101       31.1532032186        0.3839231901  MEMB      85              0.0000000000
      9707        85  SAPE      H20R          -19.0936885833       32.1092037809        0.0354180558  MEMB      85              0.0000000000
      9708        85  SAPE      H20S          -17.6574080920       31.0514463315       -0.0684280635  MEMB      85              0.0000000000
      9709        85  SAPE      H20T          -18.5514060019       31.2240527043        1.4830326198  MEMB      85              0.0000000000
      9710        85  SAPE      C33           -17.8235811861       32.1358098121       11.3570128007  MEMB      85              0.0000000000
      9711        85  SAPE      H3X           -17.7490150844       31.2554637091       10.6772265943  MEMB      85              0.0000000000
      9712        85  SAPE      H3Y           -16.8782606045       32.7157700419       11.2670508153  MEMB      85              0.0000000000
      9713        85  SAPE      C34           -18.9934984888       32.9592158416       10.8696552311  MEMB      85              0.0000000000
      9714        85  SAPE      H4X           -18.8259985900       34.0487584485       11.0315129516  MEMB      85              0.0000000000
      9715        85  SAPE      H4Y           -19.8830101668       32.6924679099       11.4877776108  MEMB      85              0.0000000000
      9716        85  SAPE      C35           -19.3508787716       32.6708209130        9.4066697671  MEMB      85              0.0000000000
      9717        85  SAPE      H5X           -19.9054000721       33.5422092599        9.0799049786  MEMB      85              0.0000000000
      9718        85  SAPE      H5Y           -20.0525853787       31.8286294148        9.3205554657  MEMB      85              0.0000000000
      9719        85  SAPE      C36           -18.2642758448       32.5249079534        8.3490440854  MEMB      85              0.0000000000
      9720        85  SAPE      H6X           -17.6050279235       31.6623971308        8.5705466337  MEMB      85              0.0000000000
      9721        85  SAPE      H6Y           -17.6548968248       33.4571236640        8.3361450175  MEMB      85              0.0000000000
      9722        85  SAPE      C37           -18.9338973353       32.3496251517        6.9758216756  MEMB      85              0.0000000000
      9723        85  SAPE      H7X           -19.6860063795       33.1374775925        6.8543631779  MEMB      85              0.0000000000
      9724        85  SAPE      H7Y           -19.5458185742       31.4511493157        6.9231577237  MEMB      85              0.0000000000
      9725        85  SAPE      C38           -17.9362440311       32.3320076797        5.8259848348  MEMB      85              0.0000000000
      9726        85  SAPE      H8X           -17.4881878871       31.3131866758        5.8015280498  MEMB      85              0.0000000000
      9727        85  SAPE      H8Y           -17.1384102184       33.0642010789        6.0561419014  MEMB      85              0.0000000000
      9728        85  SAPE      C39           -18.4648392915       32.7468964520        4.4477611019  MEMB      85              0.0000000000
      9729        85  SAPE      H9X           -19.4768847525       32.3721887351        4.2516613027  MEMB      85              0.0000000000
      9730        85  SAPE      H9Y           -17.8113739295       32.2638196316        3.6806924705  MEMB      85              0.0000000000
      9731        85  SAPE      C310          -18.3419533640       34.2545618690        4.1910046917  MEMB      85              0.0000000000
      9732        85  SAPE      H10X          -18.6984656729       34.5150760441        3.1735908060  MEMB      85              0.0000000000
      9733        85  SAPE      H10Y          -17.2390237992       34.4156191937        4.2234413986  MEMB      85              0.0000000000
      9734        85  SAPE      C311          -18.9686285184       35.2366242936        5.1988925061  MEMB      85              0.0000000000
      9735        85  SAPE      H11X          -18.1969466370       35.9508547333        5.4706006533  MEMB      85              0.0000000000
      9736        85  SAPE      H11Y          -19.1561244027       34.8000804758        6.1816758622  MEMB      85              0.0000000000
      9737        85  SAPE      C312          -20.1707698252       36.0509537881        4.6870772561  MEMB      85              0.0000000000
      9738        85  SAPE      H12X          -20.6602722997       36.5505945438        5.5562346366  MEMB      85              0.0000000000
      9739        85  SAPE      H12Y          -20.8970806672       35.3353621887        4.2521864772  MEMB      85              0.0000000000
      9740        85  SAPE      C313          -19.8282872540       37.1732356411        3.7038347583  MEMB      85              0.0000000000
      9741        85  SAPE      H13X          -18.9664590085       36.8734695401        3.0817387080  MEMB      85              0.0000000000
      9742        85  SAPE      H13Y          -19.5349832793       38.0676506075        4.2992330147  MEMB      85              0.0000000000
      9743        85  SAPE      C314          -20.9750160654       37.5714539747        2.7750900403  MEMB      85              0.0000000000
      9744        85  SAPE      H14X          -20.6670900806       38.4560069538        2.1734255715  MEMB      85              0.0000000000
      9745        85  SAPE      H14Y          -21.8135819235       37.8939420468        3.4306426377  MEMB      85              0.0000000000
      9746        85  SAPE      C315          -21.4596106948       36.4557751360        1.8288511920  MEMB      85              0.0000000000
      9747        85  SAPE      H15X          -22.2768550389       36.8283842676        1.1711312595  MEMB      85              0.0000000000
      9748        85  SAPE      H15Y          -21.8991098114       35.6396079130        2.4433656478  MEMB      85              0.0000000000
      9749        85  SAPE      C316          -20.3849896809       35.8646358381        0.9068671543  MEMB      85              0.0000000000
      9750        85  SAPE      H16X          -19.4305737053       35.7232487867        1.4548861132  MEMB      85              0.0000000000
      9751        85  SAPE      H16Y          -20.1905883651       36.5678020750        0.0673731824  MEMB      85              0.0000000000
      9752        85  SAPE      C317          -20.8241780015       34.4920997125        0.3895421197  MEMB      85              0.0000000000
      9753        85  SAPE      H17X          -21.9365425559       34.4348573007        0.3927475971  MEMB      85              0.0000000000
      9754        85  SAPE      H17Y          -20.4499600328       33.7436767706        1.1231415718  MEMB      85              0.0000000000
      9755        85  SAPE      C318          -20.3550046758       34.1236585911       -1.0132513590  MEMB      85              0.0000000000
      9756        85  SAPE      H18X          -20.5092754017       34.9714383767       -1.7088768647  MEMB      85              0.0000000000
      9757        85  SAPE      H18Y          -20.9095257298       33.2439362661       -1.4013967869  MEMB      85              0.0000000000
      9758        85  SAPE      H18Z          -19.2838078187       33.8576332403       -1.0096399810  MEMB      85              0.0000000000
      9759        86  OSM       N             -29.0101888182      -26.7402606215       20.7982911519  MEMB      86              0.0000000000
      9760        86  OSM       C15           -28.8624956924      -26.5092506777       22.2721932828  MEMB      86              0.0000000000
      9761        86  OSM       H15A          -29.8819461662      -26.5754123007       22.6868017858  MEMB      86              0.0000000000
      9762        86  OSM       H15B          -28.5109950515      -25.5166761015       22.5349930334  MEMB      86              0.0000000000
      9763        86  OSM       H15C          -28.3308274682      -27.2854620749       22.7861941269  MEMB      86              0.0000000000
      9764        86  OSM       C14           -27.8055567167      -26.4241645128       19.9888116026  MEMB      86              0.0000000000
      9765        86  OSM       H14A          -28.0094597942      -26.5296619805       18.9265275056  MEMB      86              0.0000000000
      9766        86  OSM       H14B          -26.9961721140      -27.1029734326       20.2115384674  MEMB      86              0.0000000000
      9767        86  OSM       H14C          -27.4932428288      -25.3944788104       20.1431269813  MEMB      86              0.0000000000
      9768        86  OSM       C13           -29.3849582126      -28.1813444406       20.6376133082  MEMB      86              0.0000000000
      9769        86  OSM       H13A          -28.8172153952      -28.8804172844       21.2320942680  MEMB      86              0.0000000000
      9770        86  OSM       H13B          -29.4321426032      -28.5633410324       19.6181546862  MEMB      86              0.0000000000
      9771        86  OSM       H13C          -30.4184619451      -28.3122140310       20.9925572215  MEMB      86              0.0000000000
      9772        86  OSM       C12           -30.1956626412      -25.8721541899       20.3540361188  MEMB      86              0.0000000000
      9773        86  OSM       H12A          -30.5619341234      -26.2298805618       19.4005690501  MEMB      86              0.0000000000
      9774        86  OSM       H12B          -29.8618862003      -24.8536916387       20.2134605572  MEMB      86              0.0000000000
      9775        86  OSM       C11           -31.4083323415      -25.8181738720       21.3256570747  MEMB      86              0.0000000000
      9776        86  OSM       H11A          -32.2913144582      -25.3521780677       20.8452775158  MEMB      86              0.0000000000
      9777        86  OSM       H11B          -31.1677874378      -25.1752508270       22.1901180529  MEMB      86              0.0000000000
      9778        86  OSM       P             -33.0269140610      -27.7984770033       22.0805122634  MEMB      86              0.0000000000
      9779        86  OSM       O13           -32.7959179721      -28.9915820969       22.9049312913  MEMB      86              0.0000000000
      9780        86  OSM       O14           -34.0217716319      -26.8291970191       22.5670939826  MEMB      86              0.0000000000
      9781        86  OSM       O11           -33.4422317813      -28.1971269100       20.6100954334  MEMB      86              0.0000000000
      9782        86  OSM       O12           -31.6758153627      -27.0966296123       21.8368579785  MEMB      86              0.0000000000
      9783        86  OSM       C1S           -33.6768194656      -27.3486165034       19.4893601593  MEMB      86              0.0000000000
      9784        86  OSM       H1S           -33.6938765013      -26.2677488553       19.7364704915  MEMB      86              0.0000000000
      9785        86  OSM       H1T           -34.6789072868      -27.5775370876       19.0758412691  MEMB      86              0.0000000000
      9786        86  OSM       NF            -33.2832010510      -27.1078625095       17.0749393737  MEMB      86              0.0000000000
      9787        86  OSM       HNF           -33.4014282745      -27.7682542262       16.3312110615  MEMB      86              0.0000000000
      9788        86  OSM       C2S           -32.6904078949      -27.6245671849       18.3188107408  MEMB      86              0.0000000000
      9789        86  OSM       H2S           -31.7309586132      -27.0968937393       18.4903208588  MEMB      86              0.0000000000
      9790        86  OSM       C3S           -32.3770916026      -29.1530309957       18.2528606062  MEMB      86              0.0000000000
      9791        86  OSM       H3S           -33.2993235881      -29.7010051491       18.5516791841  MEMB      86              0.0000000000
      9792        86  OSM       O3            -31.3113139254      -29.6078445057       19.0678886200  MEMB      86              0.0000000000
      9793        86  OSM       HO3           -31.7894643362      -30.0563830588       19.7839817262  MEMB      86              0.0000000000
      9794        86  OSM       C4S           -32.0500177494      -29.4891881323       16.8527670956  MEMB      86              0.0000000000
      9795        86  OSM       H4S           -31.3746550135      -28.7714233630       16.3673207598  MEMB      86              0.0000000000
      9796        86  OSM       C5S           -32.5276545836      -30.5173362501       16.1470708022  MEMB      86              0.0000000000
      9797        86  OSM       H5S           -33.1983734232      -31.2730063430       16.6046873004  MEMB      86              0.0000000000
      9798        86  OSM       C6S           -32.0893008265      -30.6637031535       14.7255152460  MEMB      86              0.0000000000
      9799        86  OSM       H6S           -32.2437885317      -31.7029880561       14.3749058371  MEMB      86              0.0000000000
      9800        86  OSM       H6T           -31.0013176042      -30.4433261592       14.6437656182  MEMB      86              0.0000000000
      9801        86  OSM       C7S           -32.8835655581      -29.6490045451       13.8687829544  MEMB      86              0.0000000000
      9802        86  OSM       H7S           -32.9349160548      -28.6582753918       14.3725813353  MEMB      86              0.0000000000
      9803        86  OSM       H7T           -33.9277295560      -30.0201265979       13.7505754651  MEMB      86              0.0000000000
      9804        86  OSM       C8S           -32.2238552251      -29.4441798132       12.4997372407  MEMB      86              0.0000000000
      9805        86  OSM       H8S           -32.5655570895      -30.2640672088       11.8306641736  MEMB      86              0.0000000000
      9806        86  OSM       H8T           -31.1352476889      -29.5567287938       12.6811932579  MEMB      86              0.0000000000
      9807        86  OSM       C9S           -32.3804663918      -28.0652884996       11.8246721222  MEMB      86              0.0000000000
      9808        86  OSM       H9S           -31.5868362200      -27.3778449215       12.1860145133  MEMB      86              0.0000000000
      9809        86  OSM       H9T           -33.3398094742      -27.6274704121       12.1593501736  MEMB      86              0.0000000000
      9810        86  OSM       C10S          -32.4339389225      -28.1123332128       10.2761901499  MEMB      86              0.0000000000
      9811        86  OSM       H10S          -33.2970971518      -27.4902584398        9.9445272135  MEMB      86              0.0000000000
      9812        86  OSM       H10T          -32.6539338572      -29.1586299121        9.9745295754  MEMB      86              0.0000000000
      9813        86  OSM       C11S          -31.2056413089      -27.6146656427        9.4859997096  MEMB      86              0.0000000000
      9814        86  OSM       H11S          -30.2674716059      -27.8147763446       10.0427033668  MEMB      86              0.0000000000
      9815        86  OSM       H11T          -31.2609006642      -26.5124388749        9.3750075010  MEMB      86              0.0000000000
      9816        86  OSM       C12S          -31.0986947758      -28.2448256317        8.0756079053  MEMB      86              0.0000000000
      9817        86  OSM       H12S          -31.9663052753      -28.9060477286        7.8720018970  MEMB      86              0.0000000000
      9818        86  OSM       H12T          -30.1770919917      -28.8477531844        8.0320727148  MEMB      86              0.0000000000
      9819        86  OSM       C13S          -30.9168385033      -27.2353827601        6.9461472934  MEMB      86              0.0000000000
      9820        86  OSM       H13S          -30.1568627702      -26.5068573618        7.3148264235  MEMB      86              0.0000000000
      9821        86  OSM       H13T          -31.8740102277      -26.7068957208        6.7769932663  MEMB      86              0.0000000000
      9822        86  OSM       C14S          -30.3547421454      -27.7548787392        5.6098885302  MEMB      86              0.0000000000
      9823        86  OSM       H14S          -29.4199077306      -28.3315741867        5.7497108715  MEMB      86              0.0000000000
      9824        86  OSM       H14T          -30.1021136694      -26.8265004895        5.0457064468  MEMB      86              0.0000000000
      9825        86  OSM       C15S          -31.3264955954      -28.5188539206        4.7177196934  MEMB      86              0.0000000000
      9826        86  OSM       H15S          -32.3291806242      -28.1418203949        4.9668654716  MEMB      86              0.0000000000
      9827        86  OSM       H15T          -31.4193065680      -29.5860357211        4.9332336738  MEMB      86              0.0000000000
      9828        86  OSM       C16S          -31.0080648828      -28.3982138443        3.2236833233  MEMB      86              0.0000000000
      9829        86  OSM       H16S          -30.3057258597      -29.1860745103        2.8823881017  MEMB      86              0.0000000000
      9830        86  OSM       H16T          -30.5072253977      -27.4234237907        3.0361205960  MEMB      86              0.0000000000
      9831        86  OSM       C17S          -32.2810761589      -28.4229436688        2.3869243800  MEMB      86              0.0000000000
      9832        86  OSM       H17S          -32.0477549059      -28.6135784376        1.3216759586  MEMB      86              0.0000000000
      9833        86  OSM       H17T          -32.6061493371      -27.3847460517        2.4402485654  MEMB      86              0.0000000000
      9834        86  OSM       C18S          -33.4397264041      -29.2839583993        2.9069223621  MEMB      86              0.0000000000
      9835        86  OSM       H18S          -33.1433215839      -30.3458992627        3.0080513189  MEMB      86              0.0000000000
      9836        86  OSM       H18T          -34.3165625115      -29.2209178620        2.2386713887  MEMB      86              0.0000000000
      9837        86  OSM       H18U          -33.8122219396      -28.9219433754        3.8865235623  MEMB      86              0.0000000000
      9838        86  OSM       C1F           -33.5523988851      -25.8171162516       16.8829713915  MEMB      86              0.0000000000
      9839        86  OSM       OF            -33.1726640838      -24.9774716826       17.6857474437  MEMB      86              0.0000000000
      9840        86  OSM       C2F           -34.3455226144      -25.4468315130       15.6728535150  MEMB      86              0.0000000000
      9841        86  OSM       H2F           -35.2849435747      -24.9645888151       16.0245635774  MEMB      86              0.0000000000
      9842        86  OSM       H2G           -34.5952055117      -26.3663440698       15.1035461619  MEMB      86              0.0000000000
      9843        86  OSM       C3F           -33.5845396771      -24.4748415694       14.7484643336  MEMB      86              0.0000000000
      9844        86  OSM       H3F           -33.3653986094      -23.5279787674       15.2924016595  MEMB      86              0.0000000000
      9845        86  OSM       H3G           -34.2518050195      -24.2290536487       13.8914688686  MEMB      86              0.0000000000
      9846        86  OSM       C4F           -32.2697056931      -25.0493619984       14.1908964183  MEMB      86              0.0000000000
      9847        86  OSM       H4F           -32.4956217686      -25.9169972336       13.5389940822  MEMB      86              0.0000000000
      9848        86  OSM       H4G           -31.6414902035      -25.4242422627       15.0271462935  MEMB      86              0.0000000000
      9849        86  OSM       C5F           -31.4308831207      -24.0094015980       13.4288257746  MEMB      86              0.0000000000
      9850        86  OSM       H5F           -30.4398080200      -24.4430646467       13.1710630140  MEMB      86              0.0000000000
      9851        86  OSM       H5G           -31.2536463635      -23.1422273003       14.1060676534  MEMB      86              0.0000000000
      9852        86  OSM       C6F           -32.0845474091      -23.4955465569       12.1428376635  MEMB      86              0.0000000000
      9853        86  OSM       H6F           -31.4928730614      -22.6294406603       11.7680290217  MEMB      86              0.0000000000
      9854        86  OSM       H6G           -33.0959005049      -23.1271009817       12.3955498836  MEMB      86              0.0000000000
      9855        86  OSM       C7F           -32.1743854084      -24.5634670897       11.0440190829  MEMB      86              0.0000000000
      9856        86  OSM       H7F           -32.7428106630      -25.4359323428       11.4307475670  MEMB      86              0.0000000000
      9857        86  OSM       H7G           -31.1427449646      -24.9019173132       10.7998813568  MEMB      86              0.0000000000
      9858        86  OSM       C8F           -32.8825325762      -24.1044342133        9.7621446002  MEMB      86              0.0000000000
      9859        86  OSM       H8F           -33.9447164635      -23.8795220994       10.0095092758  MEMB      86              0.0000000000
      9860        86  OSM       H8G           -32.9209761780      -24.9479862946        9.0380553977  MEMB      86              0.0000000000
      9861        86  OSM       C9F           -32.2432082749      -22.8761761745        9.1733115424  MEMB      86              0.0000000000
      9862        86  OSM       H9F           -32.4582138465      -21.9594188407        9.7426665439  MEMB      86              0.0000000000
      9863        86  OSM       C10F          -31.4944544692      -22.7719207269        8.0640117648  MEMB      86              0.0000000000
      9864        86  OSM       H10F          -31.1551035888      -21.7765635726        7.7412057627  MEMB      86              0.0000000000
      9865        86  OSM       C11F          -31.1154940911      -23.9031247739        7.1598440034  MEMB      86              0.0000000000
      9866        86  OSM       H11F          -31.2409128108      -24.8488700354        7.7154323747  MEMB      86              0.0000000000
      9867        86  OSM       H11G          -30.0238458643      -23.8157863971        6.9583275990  MEMB      86              0.0000000000
      9868        86  OSM       C12F          -31.8017395510      -24.0427004251        5.7830350697  MEMB      86              0.0000000000
      9869        86  OSM       H12F          -31.1589656389      -24.7652950642        5.2236396759  MEMB      86              0.0000000000
      9870        86  OSM       H12G          -31.7681652765      -23.0873712816        5.2201908659  MEMB      86              0.0000000000
      9871        86  OSM       C13F          -33.2302537764      -24.6314443619        5.7579389796  MEMB      86              0.0000000000
      9872        86  OSM       H13F          -33.9755173099      -23.8112784282        5.7410044104  MEMB      86              0.0000000000
      9873        86  OSM       H13G          -33.4195951866      -25.2373430422        6.6700179782  MEMB      86              0.0000000000
      9874        86  OSM       C14F          -33.4495119905      -25.5210186332        4.5185993547  MEMB      86              0.0000000000
      9875        86  OSM       H14F          -34.4838963801      -25.9226638484        4.4819121212  MEMB      86              0.0000000000
      9876        86  OSM       H14G          -32.7442808701      -26.3599760163        4.5841307890  MEMB      86              0.0000000000
      9877        86  OSM       C15F          -33.0958883073      -24.7941459355        3.2242656712  MEMB      86              0.0000000000
      9878        86  OSM       H15F          -31.9884074754      -24.7093988858        3.1376152475  MEMB      86              0.0000000000
      9879        86  OSM       H15G          -33.4954473031      -23.7846318485        3.3612659385  MEMB      86              0.0000000000
      9880        86  OSM       C16F          -33.6618528861      -25.3754111621        1.9257234046  MEMB      86              0.0000000000
      9881        86  OSM       H16F          -34.2097882101      -26.3269197848        2.1166284298  MEMB      86              0.0000000000
      9882        86  OSM       H16G          -32.7931220877      -25.6065527845        1.2559668255  MEMB      86              0.0000000000
      9883        86  OSM       C17F          -34.6249560382      -24.4777968504        1.1693734669  MEMB      86              0.0000000000
      9884        86  OSM       H17F          -34.5165516571      -23.4154901527        1.4462295071  MEMB      86              0.0000000000
      9885        86  OSM       H17G          -35.6590905234      -24.7710755961        1.4423690765  MEMB      86              0.0000000000
      9886        86  OSM       C18F          -34.4166629046      -24.6341161149       -0.3230786712  MEMB      86              0.0000000000
      9887        86  OSM       H18F          -35.1263109974      -23.9922635690       -0.8846513667  MEMB      86              0.0000000000
      9888        86  OSM       H18G          -34.5815386869      -25.7003805650       -0.5847985783  MEMB      86              0.0000000000
      9889        86  OSM       H18H          -33.3838377900      -24.3638086143       -0.6272841967  MEMB      86              0.0000000000
      9890        87  SLPC      N              30.4379343277       28.6721159585       15.6267377455  MEMB      87              0.0000000000
      9891        87  SLPC      C13            30.5362319240       30.1569129316       15.3897120022  MEMB      87              0.0000000000
      9892        87  SLPC      H13A           30.2054684363       30.4761833276       14.4178999357  MEMB      87              0.0000000000
      9893        87  SLPC      H13B           29.9027976094       30.6682632392       16.1275637881  MEMB      87              0.0000000000
      9894        87  SLPC      H13C           31.5329353569       30.5342106276       15.5745092894  MEMB      87              0.0000000000
      9895        87  SLPC      C14            31.0972937464       28.4731581656       16.9595423939  MEMB      87              0.0000000000
      9896        87  SLPC      H14A           32.0623142124       28.9802227524       17.0113821100  MEMB      87              0.0000000000
      9897        87  SLPC      H14B           30.5081292503       28.9908448003       17.7293460505  MEMB      87              0.0000000000
      9898        87  SLPC      H14C           31.1770260588       27.4419664490       17.2589582652  MEMB      87              0.0000000000
      9899        87  SLPC      C15            31.2136217719       27.9207676441       14.5915637717  MEMB      87              0.0000000000
      9900        87  SLPC      H15A           31.2576817280       26.8622520793       14.8407318907  MEMB      87              0.0000000000
      9901        87  SLPC      H15B           30.7720789700       28.0296768940       13.6062796569  MEMB      87              0.0000000000
      9902        87  SLPC      H15C           32.2273899788       28.3050784215       14.5327617418  MEMB      87              0.0000000000
      9903        87  SLPC      C12            28.9709932421       28.2354554249       15.6510539231  MEMB      87              0.0000000000
      9904        87  SLPC      H12A           28.9091820623       27.1559193964       15.5970500789  MEMB      87              0.0000000000
      9905        87  SLPC      H12B           28.4795342869       28.6212494741       14.7667860658  MEMB      87              0.0000000000
      9906        87  SLPC      C11            28.0663543550       28.6718003443       16.8370731589  MEMB      87              0.0000000000
      9907        87  SLPC      H11A           28.2888820151       28.0314537123       17.7271085512  MEMB      87              0.0000000000
      9908        87  SLPC      H11B           27.0067321155       28.4427967280       16.5664558035  MEMB      87              0.0000000000
      9909        87  SLPC      P              28.5822731048       30.6065804953       18.5269960179  MEMB      87              0.0000000000
      9910        87  SLPC      O13            27.8714302828       29.8012132150       19.5366397783  MEMB      87              0.0000000000
      9911        87  SLPC      O14            30.0616430324       30.6063093880       18.5501075324  MEMB      87              0.0000000000
      9912        87  SLPC      O12            28.1732110221       30.0763120888       17.0840891742  MEMB      87              0.0000000000
      9913        87  SLPC      O11            28.1074596620       32.1134958709       18.4636927187  MEMB      87              0.0000000000
      9914        87  SLPC      C1             28.9884800605       33.1198028774       17.9303954867  MEMB      87              0.0000000000
      9915        87  SLPC      HA             29.0914701065       33.9369805112       18.6705517491  MEMB      87              0.0000000000
      9916        87  SLPC      HB             30.0173655118       32.7558165325       17.6846607135  MEMB      87              0.0000000000
      9917        87  SLPC      C2             28.4337330750       33.7594257352       16.6422135102  MEMB      87              0.0000000000
      9918        87  SLPC      HS             27.4530196196       34.2232153335       16.9187329828  MEMB      87              0.0000000000
      9919        87  SLPC      O21            28.3336680548       32.7343703991       15.6345297099  MEMB      87              0.0000000000
      9920        87  SLPC      C21            27.1031588400       32.4049775569       15.2923190034  MEMB      87              0.0000000000
      9921        87  SLPC      O22            26.0831144554       32.9831327566       15.6101994776  MEMB      87              0.0000000000
      9922        87  SLPC      C22            27.1721488556       31.2194960258       14.3404006697  MEMB      87              0.0000000000
      9923        87  SLPC      H2R            28.2178978753       31.0848922956       13.9997778939  MEMB      87              0.0000000000
      9924        87  SLPC      H2S            26.8373742672       30.3271339348       14.9039251459  MEMB      87              0.0000000000
      9925        87  SLPC      C3             29.3721365462       34.9073787347       16.1491580174  MEMB      87              0.0000000000
      9926        87  SLPC      HX             29.6554991127       35.5259936202       17.0229915015  MEMB      87              0.0000000000
      9927        87  SLPC      HY             28.7976265264       35.5892933171       15.4919325177  MEMB      87              0.0000000000
      9928        87  SLPC      O31            30.5838645124       34.4301080015       15.5184698513  MEMB      87              0.0000000000
      9929        87  SLPC      C31            30.4545563131       34.3169332748       14.1996837267  MEMB      87              0.0000000000
      9930        87  SLPC      O32            29.4613145014       34.5770781591       13.5476460281  MEMB      87              0.0000000000
      9931        87  SLPC      C32            31.7208221664       33.8100068294       13.5628618233  MEMB      87              0.0000000000
      9932        87  SLPC      H2X            32.1182543864       32.9924412895       14.1957665754  MEMB      87              0.0000000000
      9933        87  SLPC      H2Y            32.4670288903       34.6312428141       13.5400155285  MEMB      87              0.0000000000
      9934        87  SLPC      C23            26.2577555384       31.4900591186       13.1452951962  MEMB      87              0.0000000000
      9935        87  SLPC      H3R            26.7317919971       32.2775417336       12.5218881626  MEMB      87              0.0000000000
      9936        87  SLPC      H3S            25.2633746588       31.8560032325       13.4972400456  MEMB      87              0.0000000000
      9937        87  SLPC      C24            25.9991311123       30.2889034028       12.2535951727  MEMB      87              0.0000000000
      9938        87  SLPC      H4R            25.2244515311       30.5957458605       11.5123898708  MEMB      87              0.0000000000
      9939        87  SLPC      H4S            25.5777741555       29.4591287440       12.8607897678  MEMB      87              0.0000000000
      9940        87  SLPC      C25            27.2460452722       29.8069254096       11.5124030944  MEMB      87              0.0000000000
      9941        87  SLPC      H5R            28.0411458368       29.5389512442       12.2405700110  MEMB      87              0.0000000000
      9942        87  SLPC      H5S            27.6486430299       30.6156452669       10.8579698634  MEMB      87              0.0000000000
      9943        87  SLPC      C26            26.8825232832       28.5915609845       10.6771580646  MEMB      87              0.0000000000
      9944        87  SLPC      H6R            26.4154856261       27.8191162711       11.3261978254  MEMB      87              0.0000000000
      9945        87  SLPC      H6S            27.7611522747       28.1172893176       10.1988108645  MEMB      87              0.0000000000
      9946        87  SLPC      C27            25.9271128649       28.9445586547        9.5487724148  MEMB      87              0.0000000000
      9947        87  SLPC      H7R            26.2830562590       29.8537022649        9.0075157586  MEMB      87              0.0000000000
      9948        87  SLPC      H7S            24.9259838493       29.1841412812        9.9740779864  MEMB      87              0.0000000000
      9949        87  SLPC      C28            25.8739123656       27.7710439350        8.5800794836  MEMB      87              0.0000000000
      9950        87  SLPC      H8R            26.0770193594       26.8196069118        9.1189771914  MEMB      87              0.0000000000
      9951        87  SLPC      H8S            26.7048184697       27.8887854913        7.8454846750  MEMB      87              0.0000000000
      9952        87  SLPC      C29            24.5278061993       27.7097309099        7.9326496939  MEMB      87              0.0000000000
      9953        87  SLPC      H9R            23.7970607163       27.0665629145        8.4424368726  MEMB      87              0.0000000000
      9954        87  SLPC      C210           24.1709767600       28.4835071961        6.9009464837  MEMB      87              0.0000000000
      9955        87  SLPC      H10R           23.1615868505       28.3911140150        6.4715265873  MEMB      87              0.0000000000
      9956        87  SLPC      C211           25.1003541524       29.4986687602        6.2934313571  MEMB      87              0.0000000000
      9957        87  SLPC      H11R           26.1375142295       29.1060871813        6.2424932067  MEMB      87              0.0000000000
      9958        87  SLPC      H11S           25.1605099001       30.3627407351        6.9920007014  MEMB      87              0.0000000000
      9959        87  SLPC      C212           24.7220473872       29.9447036902        4.9108701517  MEMB      87              0.0000000000
      9960        87  SLPC      H12R           24.7874604663       29.1776927000        4.1238668852  MEMB      87              0.0000000000
      9961        87  SLPC      C213           24.3499134337       31.1898236543        4.5895318483  MEMB      87              0.0000000000
      9962        87  SLPC      H13R           24.1734303000       31.4336054841        3.5329214030  MEMB      87              0.0000000000
      9963        87  SLPC      C214           24.2435095277       32.3427204249        5.5531724097  MEMB      87              0.0000000000
      9964        87  SLPC      H14R           23.8442889487       31.9966302648        6.5305345230  MEMB      87              0.0000000000
      9965        87  SLPC      H14S           23.5192215138       33.0942307904        5.1815571398  MEMB      87              0.0000000000
      9966        87  SLPC      C215           25.5951177756       33.0409265259        5.7743216803  MEMB      87              0.0000000000
      9967        87  SLPC      H15R           26.3481419992       32.2837107211        6.0899872847  MEMB      87              0.0000000000
      9968        87  SLPC      H15S           25.5147167229       33.7851016366        6.5966919292  MEMB      87              0.0000000000
      9969        87  SLPC      C216           26.0621129982       33.7696998787        4.5126578767  MEMB      87              0.0000000000
      9970        87  SLPC      H16R           25.4745532152       34.7031813372        4.3744121701  MEMB      87              0.0000000000
      9971        87  SLPC      H16S           25.8579063134       33.1234762336        3.6292508388  MEMB      87              0.0000000000
      9972        87  SLPC      C217           27.5544071726       34.0815796614        4.5059570771  MEMB      87              0.0000000000
      9973        87  SLPC      H17R           28.0938239305       33.3697378105        5.1727303791  MEMB      87              0.0000000000
      9974        87  SLPC      H17S           27.7109720047       35.1055783683        4.9087244413  MEMB      87              0.0000000000
      9975        87  SLPC      C218           28.1402331610       33.9505593766        3.1042725168  MEMB      87              0.0000000000
      9976        87  SLPC      H18R           27.6099400101       34.6087495056        2.3870686594  MEMB      87              0.0000000000
      9977        87  SLPC      H18S           28.0241810415       32.9140855660        2.7418855760  MEMB      87              0.0000000000
      9978        87  SLPC      H18T           29.2215617251       34.1953808014        3.1112927533  MEMB      87              0.0000000000
      9979        87  SLPC      C33            31.4045180296       33.3545874238       12.1193192568  MEMB      87              0.0000000000
      9980        87  SLPC      H3X            31.0896041420       34.2355592026       11.5115240212  MEMB      87              0.0000000000
      9981        87  SLPC      H3Y            30.5537807753       32.6382772127       12.1279888138  MEMB      87              0.0000000000
      9982        87  SLPC      C34            32.6014572018       32.6864203027       11.4474302131  MEMB      87              0.0000000000
      9983        87  SLPC      H4X            33.4362633231       33.4183237792       11.4942313479  MEMB      87              0.0000000000
      9984        87  SLPC      H4Y            32.3845724537       32.4918795239       10.3713176631  MEMB      87              0.0000000000
      9985        87  SLPC      C35            33.0144026047       31.3804757112       12.1504456269  MEMB      87              0.0000000000
      9986        87  SLPC      H5X            32.5911023642       31.3238063169       13.1740526758  MEMB      87              0.0000000000
      9987        87  SLPC      H5Y            34.1169514796       31.3931287273       12.2789156004  MEMB      87              0.0000000000
      9988        87  SLPC      C36            32.5874282497       30.1314798151       11.3714200835  MEMB      87              0.0000000000
      9989        87  SLPC      H6X            33.0006991176       29.2066506348       11.8187294150  MEMB      87              0.0000000000
      9990        87  SLPC      H6Y            33.0179297116       30.2205943166       10.3490968775  MEMB      87              0.0000000000
      9991        87  SLPC      C37            31.0690068132       29.9506384975       11.3145830700  MEMB      87              0.0000000000
      9992        87  SLPC      H7X            30.5950072730       30.8846466625       10.9403297615  MEMB      87              0.0000000000
      9993        87  SLPC      H7Y            30.6830457040       29.7730643930       12.3412226380  MEMB      87              0.0000000000
      9994        87  SLPC      C38            30.6335071687       28.8063823947       10.3952085214  MEMB      87              0.0000000000
      9995        87  SLPC      H8X            29.5531779288       28.6672088240       10.5588218893  MEMB      87              0.0000000000
      9996        87  SLPC      H8Y            31.1361932380       27.8547630153       10.6590499236  MEMB      87              0.0000000000
      9997        87  SLPC      C39            30.8472521644       29.1574675104        8.9211104884  MEMB      87              0.0000000000
      9998        87  SLPC      H9X            31.9036037649       29.4671820039        8.7630830859  MEMB      87              0.0000000000
      9999        87  SLPC      H9Y            30.2085601966       30.0365152484        8.6772977271  MEMB      87              0.0000000000
     10000        87  SLPC      C310           30.5611415280       28.0359662352        7.9161144621  MEMB      87              0.0000000000
     10001        87  SLPC      H10X           29.5221464510       27.6497899773        8.0011350724  MEMB      87              0.0000000000
     10002        87  SLPC      H10Y           31.2620479270       27.1908868875        8.1107448909  MEMB      87              0.0000000000
     10003        87  SLPC      C311           30.8008652886       28.5736447592        6.5015924465  MEMB      87              0.0000000000
     10004        87  SLPC      H11X           30.9751261504       27.7394242937        5.7866393735  MEMB      87              0.0000000000
     10005        87  SLPC      H11Y           31.7179716177       29.2000606093        6.5422734974  MEMB      87              0.0000000000
     10006        87  SLPC      C312           29.6761754420       29.4720804567        5.9792605510  MEMB      87              0.0000000000
     10007        87  SLPC      H12X           29.4548464247       30.2899939934        6.6982643390  MEMB      87              0.0000000000
     10008        87  SLPC      H12Y           28.7478215491       28.8631977401        5.8864118788  MEMB      87              0.0000000000
     10009        87  SLPC      C313           30.0168908318       30.1013333375        4.6241373524  MEMB      87              0.0000000000
     10010        87  SLPC      H13X           31.0849992196       29.9258105984        4.3687439245  MEMB      87              0.0000000000
     10011        87  SLPC      H13Y           29.8510211139       31.2025083273        4.6569842417  MEMB      87              0.0000000000
     10012        87  SLPC      C314           29.1247190735       29.5019248278        3.5510037162  MEMB      87              0.0000000000
     10013        87  SLPC      H14X           28.0721620398       29.6141186184        3.8947417585  MEMB      87              0.0000000000
     10014        87  SLPC      H14Y           29.3667062547       28.4214167622        3.4277177695  MEMB      87              0.0000000000
     10015        87  SLPC      C315           29.1703199651       30.1810939439        2.1984868042  MEMB      87              0.0000000000
     10016        87  SLPC      H15X           28.6483590503       31.1507347669        2.2408083492  MEMB      87              0.0000000000
     10017        87  SLPC      H15Y           28.5702066928       29.5085540210        1.5386322768  MEMB      87              0.0000000000
     10018        87  SLPC      C316           30.5565190443       30.3096315213        1.5797475856  MEMB      87              0.0000000000
     10019        87  SLPC      H16X           30.4027205342       30.3120915568        0.4781881559  MEMB      87              0.0000000000
     10020        87  SLPC      H16Y           31.1467491986       29.4068809630        1.8485933580  MEMB      87              0.0000000000
     10021        87  SLPC      C317           31.3877214931       31.5579627741        1.8781696443  MEMB      87              0.0000000000
     10022        87  SLPC      H17X           31.7085847912       31.5745198754        2.9414297615  MEMB      87              0.0000000000
     10023        87  SLPC      H17Y           30.7958754760       32.4845424595        1.7116770224  MEMB      87              0.0000000000
     10024        87  SLPC      C318           32.6016447995       31.5274974568        0.9432313091  MEMB      87              0.0000000000
     10025        87  SLPC      H18X           32.9533871190       30.4774758575        0.8238557306  MEMB      87              0.0000000000
     10026        87  SLPC      H18Y           33.4418456173       32.1401594918        1.3225508144  MEMB      87              0.0000000000
     10027        87  SLPC      H18Z           32.3100486036       31.8959023386       -0.0649079786  MEMB      87              0.0000000000
     10028        88  OSM       N              38.7279199949      -20.7890203225       22.4963493920  MEMB      88              0.0000000000
     10029        88  OSM       C15            39.5349264133      -19.7110923526       23.1426637058  MEMB      88              0.0000000000
     10030        88  OSM       H15A           40.4764344760      -19.5625475617       22.6211269150  MEMB      88              0.0000000000
     10031        88  OSM       H15B           39.7565357529      -19.9185831198       24.1781157084  MEMB      88              0.0000000000
     10032        88  OSM       H15C           39.0235951657      -18.7491770469       23.1113069690  MEMB      88              0.0000000000
     10033        88  OSM       C14            39.3770370884      -22.0885363817       22.7562820743  MEMB      88              0.0000000000
     10034        88  OSM       H14A           38.7791571155      -22.8465478200       22.2454488500  MEMB      88              0.0000000000
     10035        88  OSM       H14B           39.4231306254      -22.3439213679       23.8024364246  MEMB      88              0.0000000000
     10036        88  OSM       H14C           40.3707073939      -22.0810443175       22.3181564727  MEMB      88              0.0000000000
     10037        88  OSM       C13            37.3343538681      -20.8086416728       23.0160659156  MEMB      88              0.0000000000
     10038        88  OSM       H13A           36.7950758016      -19.9617797416       22.5872599182  MEMB      88              0.0000000000
     10039        88  OSM       H13B           37.2547570673      -20.7674869830       24.0848369401  MEMB      88              0.0000000000
     10040        88  OSM       H13C           36.8368984889      -21.6966042067       22.6271128096  MEMB      88              0.0000000000
     10041        88  OSM       C12            38.6126241940      -20.6029862802       20.9834406084  MEMB      88              0.0000000000
     10042        88  OSM       H12A           39.6055055456      -20.4569628037       20.5703778904  MEMB      88              0.0000000000
     10043        88  OSM       H12B           37.9996368216      -19.7266971201       20.8067519326  MEMB      88              0.0000000000
     10044        88  OSM       C11            37.9366391007      -21.7281812189       20.1570582269  MEMB      88              0.0000000000
     10045        88  OSM       H11A           38.5780888185      -22.6351252335       20.1727046869  MEMB      88              0.0000000000
     10046        88  OSM       H11B           37.9130238755      -21.4088077137       19.0870195072  MEMB      88              0.0000000000
     10047        88  OSM       P              35.2990710201      -21.3996737063       20.1715652945  MEMB      88              0.0000000000
     10048        88  OSM       O13            34.2604967215      -22.4686716742       20.2278622238  MEMB      88              0.0000000000
     10049        88  OSM       O14            35.0498884114      -20.1389510400       20.9067223654  MEMB      88              0.0000000000
     10050        88  OSM       O11            35.6008865051      -21.1118176074       18.6441793305  MEMB      88              0.0000000000
     10051        88  OSM       O12            36.6441612657      -22.0612502111       20.6637682176  MEMB      88              0.0000000000
     10052        88  OSM       C1S            35.6562030226      -22.2401438791       17.7588046522  MEMB      88              0.0000000000
     10053        88  OSM       H1S            34.7575304284      -22.8602677745       17.9047561177  MEMB      88              0.0000000000
     10054        88  OSM       H1T            36.5648717435      -22.8659842088       17.9323218405  MEMB      88              0.0000000000
     10055        88  OSM       NF             35.4689273345      -22.9601749490       15.3971645111  MEMB      88              0.0000000000
     10056        88  OSM       HNF            36.1078469352      -23.0873460326       14.6453831034  MEMB      88              0.0000000000
     10057        88  OSM       C2S            35.6530981339      -21.7866807875       16.2738298958  MEMB      88              0.0000000000
     10058        88  OSM       H2S            34.8052944473      -21.0872093250       16.1415946519  MEMB      88              0.0000000000
     10059        88  OSM       C3S            37.0031628882      -21.0124888431       16.0980110157  MEMB      88              0.0000000000
     10060        88  OSM       H3S            37.8430984502      -21.6569704175       16.4334903136  MEMB      88              0.0000000000
     10061        88  OSM       O3             37.0481264143      -19.8410758818       16.9134270789  MEMB      88              0.0000000000
     10062        88  OSM       HO3            36.3280727966      -19.9626783242       17.5607542652  MEMB      88              0.0000000000
     10063        88  OSM       C4S            37.2528357614      -20.5040989283       14.6979579839  MEMB      88              0.0000000000
     10064        88  OSM       H4S            36.5145207278      -19.7674248476       14.3524746159  MEMB      88              0.0000000000
     10065        88  OSM       C5S            38.3202018597      -20.8129988840       13.9147911400  MEMB      88              0.0000000000
     10066        88  OSM       H5S            39.0906246708      -21.4904055625       14.3229365676  MEMB      88              0.0000000000
     10067        88  OSM       C6S            38.5977298520      -20.2788611871       12.5175839551  MEMB      88              0.0000000000
     10068        88  OSM       H6S            39.6452603353      -19.9097919757       12.4998127343  MEMB      88              0.0000000000
     10069        88  OSM       H6T            37.9686651161      -19.3784388674       12.3285216623  MEMB      88              0.0000000000
     10070        88  OSM       C7S            38.4274176805      -21.2115170311       11.2839424036  MEMB      88              0.0000000000
     10071        88  OSM       H7S            37.4631362313      -21.7178599279       11.4463871803  MEMB      88              0.0000000000
     10072        88  OSM       H7T            39.1951781529      -22.0045776468       11.2704001876  MEMB      88              0.0000000000
     10073        88  OSM       C8S            38.4747975723      -20.4492778308        9.9231241721  MEMB      88              0.0000000000
     10074        88  OSM       H8S            39.4625456344      -19.9322367286        9.8724280608  MEMB      88              0.0000000000
     10075        88  OSM       H8T            37.6912807933      -19.6662817544        9.9432198269  MEMB      88              0.0000000000
     10076        88  OSM       C9S            38.3345929115      -21.2756148768        8.6090410315  MEMB      88              0.0000000000
     10077        88  OSM       H9S            37.7262872358      -22.1910923708        8.7417094532  MEMB      88              0.0000000000
     10078        88  OSM       H9T            39.3496190877      -21.6082461507        8.3518402833  MEMB      88              0.0000000000
     10079        88  OSM       C10S           37.9425216869      -20.5304222125        7.3019280016  MEMB      88              0.0000000000
     10080        88  OSM       H10S           38.4505710753      -19.5453404948        7.3203441830  MEMB      88              0.0000000000
     10081        88  OSM       H10T           36.8457870716      -20.3630711606        7.2570323114  MEMB      88              0.0000000000
     10082        88  OSM       C11S           38.4201750782      -21.3052301068        6.0415689067  MEMB      88              0.0000000000
     10083        88  OSM       H11S           37.8185257934      -22.2357793394        5.9472112547  MEMB      88              0.0000000000
     10084        88  OSM       H11T           39.4756560654      -21.6185348734        6.2217995054  MEMB      88              0.0000000000
     10085        88  OSM       C12S           38.4317408897      -20.5758854668        4.6694353451  MEMB      88              0.0000000000
     10086        88  OSM       H12S           39.0473302052      -19.6597864187        4.7655703119  MEMB      88              0.0000000000
     10087        88  OSM       H12T           37.4000384821      -20.3023743860        4.3652317030  MEMB      88              0.0000000000
     10088        88  OSM       C13S           39.0984658211      -21.4646441854        3.5962890010  MEMB      88              0.0000000000
     10089        88  OSM       H13S           38.4791219327      -22.3794172688        3.4804124213  MEMB      88              0.0000000000
     10090        88  OSM       H13T           40.0733722163      -21.7762184734        4.0380778276  MEMB      88              0.0000000000
     10091        88  OSM       C14S           39.4314349911      -20.9139590737        2.1830544343  MEMB      88              0.0000000000
     10092        88  OSM       H14S           39.5873137318      -19.8187769465        2.2016754521  MEMB      88              0.0000000000
     10093        88  OSM       H14T           38.5681134494      -21.1291989074        1.5196129540  MEMB      88              0.0000000000
     10094        88  OSM       C15S           40.7201377941      -21.5841670352        1.6311485109  MEMB      88              0.0000000000
     10095        88  OSM       H15S           40.7557106716      -22.6027411583        2.0528747693  MEMB      88              0.0000000000
     10096        88  OSM       H15T           41.6320228676      -21.0977892006        2.0187341359  MEMB      88              0.0000000000
     10097        88  OSM       C16S           40.8685221869      -21.8274494806        0.1214527771  MEMB      88              0.0000000000
     10098        88  OSM       H16S           39.8931161220      -22.0500751449       -0.3527975769  MEMB      88              0.0000000000
     10099        88  OSM       H16T           41.4960601552      -22.7471152153        0.0088756179  MEMB      88              0.0000000000
     10100        88  OSM       C17S           41.6032694958      -20.7148584360       -0.6200930420  MEMB      88              0.0000000000
     10101        88  OSM       H17S           42.4996163855      -20.4271080252       -0.0238345057  MEMB      88              0.0000000000
     10102        88  OSM       H17T           40.9317268698      -19.8299158450       -0.6830548573  MEMB      88              0.0000000000
     10103        88  OSM       C18S           42.0720893137      -21.1468894900       -2.0113152246  MEMB      88              0.0000000000
     10104        88  OSM       H18S           42.1394672090      -20.2747729550       -2.6914628073  MEMB      88              0.0000000000
     10105        88  OSM       H18T           41.3679358659      -21.8801726907       -2.4587755762  MEMB      88              0.0000000000
     10106        88  OSM       H18U           43.0794613031      -21.6159723217       -1.9475817624  MEMB      88              0.0000000000
     10107        88  OSM       C1F            34.3439846546      -23.7134160370       15.5070022091  MEMB      88              0.0000000000
     10108        88  OSM       OF             33.3791860324      -23.3082297016       16.1340231974  MEMB      88              0.0000000000
     10109        88  OSM       C2F            34.3145645787      -25.0899390870       14.9230382804  MEMB      88              0.0000000000
     10110        88  OSM       H2F            34.7498496751      -25.7531305829       15.7053089173  MEMB      88              0.0000000000
     10111        88  OSM       H2G            34.9614557347      -25.1165248462       14.0288998103  MEMB      88              0.0000000000
     10112        88  OSM       C3F            32.8969114022      -25.6607277267       14.5944797218  MEMB      88              0.0000000000
     10113        88  OSM       H3F            32.2890757237      -25.6755748117       15.5316000909  MEMB      88              0.0000000000
     10114        88  OSM       H3G            33.0310681171      -26.7267314332       14.3001021686  MEMB      88              0.0000000000
     10115        88  OSM       C4F            32.0533228892      -24.9419116829       13.5002565951  MEMB      88              0.0000000000
     10116        88  OSM       H4F            31.7219240801      -23.9791416901       13.9325874349  MEMB      88              0.0000000000
     10117        88  OSM       H4G            31.1422196227      -25.5364968166       13.2733413867  MEMB      88              0.0000000000
     10118        88  OSM       C5F            32.7450849430      -24.5829777532       12.1723957628  MEMB      88              0.0000000000
     10119        88  OSM       H5F            32.8226377495      -25.4309155935       11.4833983859  MEMB      88              0.0000000000
     10120        88  OSM       H5G            33.8122611048      -24.4563338641       12.4932035750  MEMB      88              0.0000000000
     10121        88  OSM       C6F            32.4810126155      -23.1246304307       11.6522824640  MEMB      88              0.0000000000
     10122        88  OSM       H6F            33.4565278320      -22.9192301142       11.2280656615  MEMB      88              0.0000000000
     10123        88  OSM       H6G            32.4154485509      -22.5533951092       12.6002415011  MEMB      88              0.0000000000
     10124        88  OSM       C7F            31.4736374052      -22.4142473369       10.6396631737  MEMB      88              0.0000000000
     10125        88  OSM       H7F            31.5971776662      -21.3870865550       11.0329010024  MEMB      88              0.0000000000
     10126        88  OSM       H7G            30.4091840270      -22.6063077532       10.8141578906  MEMB      88              0.0000000000
     10127        88  OSM       C8F            31.9022005650      -21.9498439776        9.1611753299  MEMB      88              0.0000000000
     10128        88  OSM       H8F            32.6945905893      -22.6234817121        8.9574775109  MEMB      88              0.0000000000
     10129        88  OSM       H8G            32.3935125492      -20.9869467432        9.1357509803  MEMB      88              0.0000000000
     10130        88  OSM       C9F            31.1856480467      -21.8269248840        7.8444231953  MEMB      88              0.0000000000
     10131        88  OSM       H9F            30.1373833028      -21.5055658201        7.9230307762  MEMB      88              0.0000000000
     10132        88  OSM       C10F           31.7818319854      -21.9610687898        6.6209908297  MEMB      88              0.0000000000
     10133        88  OSM       H10F           31.1652022468      -21.8369781449        5.7158658913  MEMB      88              0.0000000000
     10134        88  OSM       C11F           33.2540626680      -22.2518108310        6.3555664407  MEMB      88              0.0000000000
     10135        88  OSM       H11F           33.7902249527      -22.2308221034        7.3223722078  MEMB      88              0.0000000000
     10136        88  OSM       H11G           33.7444954680      -21.4166892117        5.8241504221  MEMB      88              0.0000000000
     10137        88  OSM       C12F           33.6847822824      -23.5909365628        5.6872540588  MEMB      88              0.0000000000
     10138        88  OSM       H12F           32.9565615842      -24.3943601002        5.8932083792  MEMB      88              0.0000000000
     10139        88  OSM       H12G           34.6239422236      -23.9070266748        6.1977502710  MEMB      88              0.0000000000
     10140        88  OSM       C13F           34.0076998465      -23.5756816993        4.1801714777  MEMB      88              0.0000000000
     10141        88  OSM       H13F           33.1025243007      -23.3358265637        3.5847533830  MEMB      88              0.0000000000
     10142        88  OSM       H13G           34.3072213086      -24.6163847717        3.9200550523  MEMB      88              0.0000000000
     10143        88  OSM       C14F           35.1741212579      -22.6383707709        3.8226027104  MEMB      88              0.0000000000
     10144        88  OSM       H14F           35.9930066730      -22.8316629189        4.5572799238  MEMB      88              0.0000000000
     10145        88  OSM       H14G           34.8590856481      -21.5838733668        3.9477579708  MEMB      88              0.0000000000
     10146        88  OSM       C15F           35.7882385701      -22.8448094751        2.4255017709  MEMB      88              0.0000000000
     10147        88  OSM       H15F           36.1863129515      -23.8817284739        2.3980348166  MEMB      88              0.0000000000
     10148        88  OSM       H15G           36.6510257893      -22.1514527564        2.3086542302  MEMB      88              0.0000000000
     10149        88  OSM       C16F           34.8635283880      -22.6440498825        1.2148167263  MEMB      88              0.0000000000
     10150        88  OSM       H16F           34.8021756351      -21.5593350749        0.9747515921  MEMB      88              0.0000000000
     10151        88  OSM       H16G           33.8386867588      -23.0010510844        1.4516562727  MEMB      88              0.0000000000
     10152        88  OSM       C17F           35.3812824345      -23.4077630316       -0.0153205676  MEMB      88              0.0000000000
     10153        88  OSM       H17F           35.3765744892      -24.4925937969        0.1890950266  MEMB      88              0.0000000000
     10154        88  OSM       H17G           36.4470550645      -23.1494486399       -0.1818047606  MEMB      88              0.0000000000
     10155        88  OSM       C18F           34.6085677524      -23.1639870372       -1.3061038371  MEMB      88              0.0000000000
     10156        88  OSM       H18F           33.5863748784      -22.7853496777       -1.1007174164  MEMB      88              0.0000000000
     10157        88  OSM       H18G           34.5139101313      -24.0820786937       -1.9201807984  MEMB      88              0.0000000000
     10158        88  OSM       H18H           35.1743803386      -22.4309744987       -1.9113812882  MEMB      88              0.0000000000
     10159        89  CHL1      C3            -25.0366568483      -33.8454633484       17.6565644283  MEMB      89              0.0000000000
     10160        89  CHL1      H3            -25.8378154501      -33.1893549087       17.2726162485  MEMB      89              0.0000000000
     10161        89  CHL1      O3            -25.1000908156      -33.7556854692       19.0699612621  MEMB      89              0.0000000000
     10162        89  CHL1      H3'           -26.0245631919      -33.9301013994       19.2630943782  MEMB      89              0.0000000000
     10163        89  CHL1      C4            -25.2358796643      -35.3057554575       17.1629095314  MEMB      89              0.0000000000
     10164        89  CHL1      H4A           -24.4096225452      -35.9078393930       17.5967577094  MEMB      89              0.0000000000
     10165        89  CHL1      H4B           -26.1665918412      -35.7144558232       17.6137872990  MEMB      89              0.0000000000
     10166        89  CHL1      C5            -25.2396239111      -35.4080372759       15.6378839036  MEMB      89              0.0000000000
     10167        89  CHL1      C6            -26.2739765620      -35.9102547671       14.9351097707  MEMB      89              0.0000000000
     10168        89  CHL1      H6            -27.1355066440      -36.3004191350       15.4983504355  MEMB      89              0.0000000000
     10169        89  CHL1      C7            -26.4201966013      -35.9106906502       13.4277114698  MEMB      89              0.0000000000
     10170        89  CHL1      H7A           -26.6674976328      -36.9388181508       13.0787481005  MEMB      89              0.0000000000
     10171        89  CHL1      H7B           -27.2808297253      -35.2871526242       13.1287840527  MEMB      89              0.0000000000
     10172        89  CHL1      C8            -25.1731864644      -35.4436384630       12.6289715420  MEMB      89              0.0000000000
     10173        89  CHL1      H8            -24.6314623984      -36.3963653471       12.4578642601  MEMB      89              0.0000000000
     10174        89  CHL1      C14           -25.4606067934      -34.7042468591       11.2724395983  MEMB      89              0.0000000000
     10175        89  CHL1      H14           -25.7817313638      -33.6692191769       11.5413311293  MEMB      89              0.0000000000
     10176        89  CHL1      C15           -26.5364297933      -35.1831526947       10.2651128722  MEMB      89              0.0000000000
     10177        89  CHL1      H15A          -26.5498899679      -36.2907419648       10.2269174117  MEMB      89              0.0000000000
     10178        89  CHL1      H15B          -27.5487203120      -34.8237804139       10.5376191478  MEMB      89              0.0000000000
     10179        89  CHL1      C16           -26.0808521933      -34.6446155643        8.8750989539  MEMB      89              0.0000000000
     10180        89  CHL1      H16A          -26.0168965424      -35.4960639877        8.1652614852  MEMB      89              0.0000000000
     10181        89  CHL1      H16B          -26.7463127314      -33.8761483537        8.4465433541  MEMB      89              0.0000000000
     10182        89  CHL1      C17           -24.6828275823      -33.9852863464        9.0326747570  MEMB      89              0.0000000000
     10183        89  CHL1      H17           -24.8811313784      -32.9016117804        9.1546006176  MEMB      89              0.0000000000
     10184        89  CHL1      C13           -24.2066457300      -34.5415079238       10.4105285905  MEMB      89              0.0000000000
     10185        89  CHL1      C18           -23.7353454653      -35.9261296596       10.0934167922  MEMB      89              0.0000000000
     10186        89  CHL1      H18A          -23.3507063093      -36.4468238789       10.9812248309  MEMB      89              0.0000000000
     10187        89  CHL1      H18B          -24.5034427250      -36.5748875227        9.6294540417  MEMB      89              0.0000000000
     10188        89  CHL1      H18C          -22.8829969475      -35.8638787225        9.3988873353  MEMB      89              0.0000000000
     10189        89  CHL1      C12           -23.1559494097      -33.7768266845       11.2330737818  MEMB      89              0.0000000000
     10190        89  CHL1      H12A          -22.2016233129      -33.6116796693       10.7036065109  MEMB      89              0.0000000000
     10191        89  CHL1      H12B          -23.6370869246      -32.8184215279       11.4483378164  MEMB      89              0.0000000000
     10192        89  CHL1      C11           -22.8946137280      -34.3423014574       12.6434022197  MEMB      89              0.0000000000
     10193        89  CHL1      H11A          -22.3631612205      -35.2983672209       12.5709381103  MEMB      89              0.0000000000
     10194        89  CHL1      H11B          -22.2109289835      -33.6621431229       13.1966909632  MEMB      89              0.0000000000
     10195        89  CHL1      C9            -24.2170827258      -34.5333888647       13.4297441570  MEMB      89              0.0000000000
     10196        89  CHL1      H9            -24.7213343925      -33.5380303389       13.3801626999  MEMB      89              0.0000000000
     10197        89  CHL1      C10           -24.0340987806      -34.7534537218       14.9655191711  MEMB      89              0.0000000000
     10198        89  CHL1      C19           -22.8365253009      -35.6878497118       15.2888094642  MEMB      89              0.0000000000
     10199        89  CHL1      H19A          -23.0596559054      -36.7450245414       15.0473437637  MEMB      89              0.0000000000
     10200        89  CHL1      H19B          -21.9133567145      -35.3811598649       14.7594670333  MEMB      89              0.0000000000
     10201        89  CHL1      H19C          -22.5736170542      -35.6367108931       16.3660234741  MEMB      89              0.0000000000
     10202        89  CHL1      C1            -23.7993598554      -33.3339082752       15.5810239892  MEMB      89              0.0000000000
     10203        89  CHL1      H1A           -22.8799691038      -32.9062480898       15.1538645951  MEMB      89              0.0000000000
     10204        89  CHL1      H1B           -24.6128842629      -32.6553973569       15.2484233932  MEMB      89              0.0000000000
     10205        89  CHL1      C2            -23.7451413448      -33.2472589526       17.1160195045  MEMB      89              0.0000000000
     10206        89  CHL1      H2A           -23.6661862290      -32.1752777413       17.4076268875  MEMB      89              0.0000000000
     10207        89  CHL1      H2B           -22.8599337528      -33.7735450457       17.5253478720  MEMB      89              0.0000000000
     10208        89  CHL1      C20           -23.7824683545      -34.1497921692        7.7539985395  MEMB      89              0.0000000000
     10209        89  CHL1      H20           -23.6979766287      -35.2407268618        7.5321860768  MEMB      89              0.0000000000
     10210        89  CHL1      C21           -22.3488819009      -33.6476515148        8.0443179384  MEMB      89              0.0000000000
     10211        89  CHL1      H21A          -22.3764470768      -32.6601319671        8.5378824259  MEMB      89              0.0000000000
     10212        89  CHL1      H21B          -21.7186121357      -33.5953426738        7.1378087871  MEMB      89              0.0000000000
     10213        89  CHL1      H21C          -21.8173484521      -34.3444589653        8.7183899403  MEMB      89              0.0000000000
     10214        89  CHL1      C22           -24.3556115937      -33.5475138652        6.4219142244  MEMB      89              0.0000000000
     10215        89  CHL1      H22A          -25.0699800289      -34.2935335890        6.0194971008  MEMB      89              0.0000000000
     10216        89  CHL1      H22B          -24.9312079757      -32.6209462505        6.6160737840  MEMB      89              0.0000000000
     10217        89  CHL1      C23           -23.3572078083      -33.3344093814        5.2428929529  MEMB      89              0.0000000000
     10218        89  CHL1      H23A          -22.5280103302      -32.6588657115        5.5506782715  MEMB      89              0.0000000000
     10219        89  CHL1      H23B          -22.9158785398      -34.3152158606        4.9763351391  MEMB      89              0.0000000000
     10220        89  CHL1      C24           -24.0105233396      -32.6627049305        4.0149447126  MEMB      89              0.0000000000
     10221        89  CHL1      H24A          -25.1069641240      -32.8452175983        4.0236833926  MEMB      89              0.0000000000
     10222        89  CHL1      H24B          -23.8615836352      -31.5640047234        4.1834397356  MEMB      89              0.0000000000
     10223        89  CHL1      C25           -23.4777618099      -32.9533868139        2.5767645512  MEMB      89              0.0000000000
     10224        89  CHL1      H25           -22.3645293420      -32.8710781088        2.5618110577  MEMB      89              0.0000000000
     10225        89  CHL1      C26           -23.8549572118      -34.2918185424        1.9251881175  MEMB      89              0.0000000000
     10226        89  CHL1      H26A          -24.9212612998      -34.5403913569        2.0564300534  MEMB      89              0.0000000000
     10227        89  CHL1      H26B          -23.6598212524      -34.2522373899        0.8315378376  MEMB      89              0.0000000000
     10228        89  CHL1      H26C          -23.2502263696      -35.1084967731        2.3269027557  MEMB      89              0.0000000000
     10229        89  CHL1      C27           -24.0816005251      -31.8820329841        1.6712953604  MEMB      89              0.0000000000
     10230        89  CHL1      H27A          -25.1856005621      -31.8744043242        1.8180549714  MEMB      89              0.0000000000
     10231        89  CHL1      H27B          -23.6544817444      -30.9063131643        1.9583787359  MEMB      89              0.0000000000
     10232        89  CHL1      H27C          -23.8632305378      -32.0673723915        0.5998764774  MEMB      89              0.0000000000
     10233        90  SAPE      N              35.2009324753       20.6692307058       21.2702291091  MEMB      90              0.0000000000
     10234        90  SAPE      HN1            34.7515124966       19.8287917917       21.6914554530  MEMB      90              0.0000000000
     10235        90  SAPE      HN2            35.3668952750       20.5421070775       20.2548412835  MEMB      90              0.0000000000
     10236        90  SAPE      HN3            36.1674356617       20.7453200128       21.6789095448  MEMB      90              0.0000000000
     10237        90  SAPE      C12            34.4843593837       21.9740498210       21.5278239032  MEMB      90              0.0000000000
     10238        90  SAPE      H12A           33.9992267915       21.9309018043       22.5205251880  MEMB      90              0.0000000000
     10239        90  SAPE      H12B           33.7134180620       22.1046791816       20.7434510551  MEMB      90              0.0000000000
     10240        90  SAPE      C11            35.4724485165       23.1396180536       21.4702749905  MEMB      90              0.0000000000
     10241        90  SAPE      H11A           36.1856265395       23.0771087213       22.3127922629  MEMB      90              0.0000000000
     10242        90  SAPE      H11B           34.9093772894       24.1021167711       21.6023832263  MEMB      90              0.0000000000
     10243        90  SAPE      P              35.8271506873       24.0412967996       19.0757275353  MEMB      90              0.0000000000
     10244        90  SAPE      O13            34.3667090229       24.2170921233       19.1231690051  MEMB      90              0.0000000000
     10245        90  SAPE      O14            36.6720668106       25.2444074900       19.1968718914  MEMB      90              0.0000000000
     10246        90  SAPE      O12            36.2264719387       23.0679080775       20.2662899656  MEMB      90              0.0000000000
     10247        90  SAPE      O11            36.2360715496       23.1914722269       17.8101652797  MEMB      90              0.0000000000
     10248        90  SAPE      C1             36.8405267100       21.8887729032       17.9472789640  MEMB      90              0.0000000000
     10249        90  SAPE      HA             37.8037003793       21.9946752712       18.5011233161  MEMB      90              0.0000000000
     10250        90  SAPE      HB             36.1734817796       21.1997281239       18.5064927907  MEMB      90              0.0000000000
     10251        90  SAPE      C2             37.2135835920       21.2097061141       16.5816689582  MEMB      90              0.0000000000
     10252        90  SAPE      HS             38.0701775872       20.5276946982       16.7705587861  MEMB      90              0.0000000000
     10253        90  SAPE      O21            37.6151694825       22.2960098958       15.7482528731  MEMB      90              0.0000000000
     10254        90  SAPE      C21            37.6982114804       22.3174156828       14.4539060900  MEMB      90              0.0000000000
     10255        90  SAPE      O22            37.6914363257       21.3655958656       13.6876326374  MEMB      90              0.0000000000
     10256        90  SAPE      C22            37.9192958519       23.8118522843       14.1476130605  MEMB      90              0.0000000000
     10257        90  SAPE      H2R            37.2582382507       24.4114705731       14.8047188244  MEMB      90              0.0000000000
     10258        90  SAPE      H2S            38.9677090087       24.0483361601       14.4329766274  MEMB      90              0.0000000000
     10259        90  SAPE      C3             36.0644948443       20.3546057312       15.9489873907  MEMB      90              0.0000000000
     10260        90  SAPE      HX             35.6321799017       19.6521325182       16.6986597306  MEMB      90              0.0000000000
     10261        90  SAPE      HY             36.5003240680       19.7162554050       15.1451096840  MEMB      90              0.0000000000
     10262        90  SAPE      O31            35.0729928710       21.1996864110       15.3586439976  MEMB      90              0.0000000000
     10263        90  SAPE      C31            34.2170544923       21.7760796825       16.1854327809  MEMB      90              0.0000000000
     10264        90  SAPE      O32            33.8642152321       21.3379870350       17.2735282283  MEMB      90              0.0000000000
     10265        90  SAPE      C32            33.7687488258       23.0672606060       15.5425489466  MEMB      90              0.0000000000
     10266        90  SAPE      H2X            34.6517662578       23.5882765747       15.1181228637  MEMB      90              0.0000000000
     10267        90  SAPE      H2Y            33.3625953687       23.6967598975       16.3643902927  MEMB      90              0.0000000000
     10268        90  SAPE      C23            37.7252209382       24.2193330350       12.6817681935  MEMB      90              0.0000000000
     10269        90  SAPE      H3R            38.3174170515       23.4920774813       12.0873247478  MEMB      90              0.0000000000
     10270        90  SAPE      H3S            38.1548633278       25.2307027253       12.5047531142  MEMB      90              0.0000000000
     10271        90  SAPE      C24            36.2587045904       24.1940758876       12.2222433854  MEMB      90              0.0000000000
     10272        90  SAPE      H4R            35.8912523767       23.2012667648       12.5587868135  MEMB      90              0.0000000000
     10273        90  SAPE      H4S            36.2208684253       24.1824076687       11.1192733938  MEMB      90              0.0000000000
     10274        90  SAPE      C25            35.3705545622       25.3106385804       12.7072745744  MEMB      90              0.0000000000
     10275        90  SAPE      H5R            35.4897446644       25.5431379611       13.7767422389  MEMB      90              0.0000000000
     10276        90  SAPE      C26            34.4735045953       25.9990349329       11.9621449807  MEMB      90              0.0000000000
     10277        90  SAPE      H6R            33.8767487702       26.7715904498       12.4686577123  MEMB      90              0.0000000000
     10278        90  SAPE      C27            34.1444392927       25.8348696225       10.4906364598  MEMB      90              0.0000000000
     10279        90  SAPE      H7R            33.0334532807       25.8976759204       10.3811821276  MEMB      90              0.0000000000
     10280        90  SAPE      H7S            34.4205404421       24.8348476959       10.0989616649  MEMB      90              0.0000000000
     10281        90  SAPE      C28            34.7538618629       26.9269614867        9.6431985865  MEMB      90              0.0000000000
     10282        90  SAPE      H8R            34.3852268471       27.9247775947        9.9394150603  MEMB      90              0.0000000000
     10283        90  SAPE      C29            35.6946862913       26.9229102267        8.6654960901  MEMB      90              0.0000000000
     10284        90  SAPE      H9R            36.0055957437       27.9225401962        8.3689729625  MEMB      90              0.0000000000
     10285        90  SAPE      C210           36.5266451329       25.8728857424        7.9357050207  MEMB      90              0.0000000000
     10286        90  SAPE      H10R           36.1647221267       24.8504168525        8.1541908492  MEMB      90              0.0000000000
     10287        90  SAPE      H10S           37.5127147215       26.0097267777        8.4130126656  MEMB      90              0.0000000000
     10288        90  SAPE      C211           36.8731168240       26.1023892804        6.4692254118  MEMB      90              0.0000000000
     10289        90  SAPE      H11R           35.9943285060       26.4904289059        5.9215651894  MEMB      90              0.0000000000
     10290        90  SAPE      C212           37.9359885773       25.7233377954        5.6783625075  MEMB      90              0.0000000000
     10291        90  SAPE      H12R           37.9115133274       26.1347221618        4.6568328287  MEMB      90              0.0000000000
     10292        90  SAPE      C213           39.2498134955       24.9475607988        5.9207429678  MEMB      90              0.0000000000
     10293        90  SAPE      H13R           39.0107412023       24.3799003409        6.8342645182  MEMB      90              0.0000000000
     10294        90  SAPE      H13S           39.9749906447       25.7430467195        6.1795303922  MEMB      90              0.0000000000
     10295        90  SAPE      C214           40.1495850193       23.8609022504        5.2425166020  MEMB      90              0.0000000000
     10296        90  SAPE      H14R           41.1067140157       23.9724115204        5.7586194372  MEMB      90              0.0000000000
     10297        90  SAPE      C215           40.2636009584       22.8067400234        4.3594331086  MEMB      90              0.0000000000
     10298        90  SAPE      H15R           41.2631251758       22.3525160134        4.3343143595  MEMB      90              0.0000000000
     10299        90  SAPE      C216           39.3658247959       22.0016741274        3.4311012838  MEMB      90              0.0000000000
     10300        90  SAPE      H16R           38.3889701633       22.3575077826        3.7388887100  MEMB      90              0.0000000000
     10301        90  SAPE      H16S           39.6358942330       22.3791374859        2.4233312777  MEMB      90              0.0000000000
     10302        90  SAPE      C217           38.9077308727       20.4876965267        3.2205468282  MEMB      90              0.0000000000
     10303        90  SAPE      H17R           38.7277196308       20.0750615895        4.2207786182  MEMB      90              0.0000000000
     10304        90  SAPE      H17S           39.6696277183       19.8507642520        2.7360856726  MEMB      90              0.0000000000
     10305        90  SAPE      C218           37.4659879925       20.4230731010        2.5900404337  MEMB      90              0.0000000000
     10306        90  SAPE      H18R           37.3177220872       21.1264215814        1.7554387968  MEMB      90              0.0000000000
     10307        90  SAPE      H18S           36.8742162782       20.8101116792        3.4360761695  MEMB      90              0.0000000000
     10308        90  SAPE      C219           36.6503311374       19.1655677020        2.1906691388  MEMB      90              0.0000000000
     10309        90  SAPE      H19R           35.7257449110       19.5852530429        1.7068665372  MEMB      90              0.0000000000
     10310        90  SAPE      H19S           36.2840249430       18.6075101835        3.0598334359  MEMB      90              0.0000000000
     10311        90  SAPE      C220           37.2163563702       18.2313141428        1.1426191825  MEMB      90              0.0000000000
     10312        90  SAPE      H20R           38.2645679401       17.9257470629        1.3379504860  MEMB      90              0.0000000000
     10313        90  SAPE      H20S           37.1483652364       18.8460718268        0.2360441754  MEMB      90              0.0000000000
     10314        90  SAPE      H20T           36.5835448992       17.3337899736        0.9638876933  MEMB      90              0.0000000000
     10315        90  SAPE      C33            32.6874807024       22.7784747474       14.4860888836  MEMB      90              0.0000000000
     10316        90  SAPE      H3X            32.0869491232       23.7143578407       14.4341144769  MEMB      90              0.0000000000
     10317        90  SAPE      H3Y            32.0218284919       21.9501463634       14.8150601523  MEMB      90              0.0000000000
     10318        90  SAPE      C34            33.1406496737       22.5161156655       13.0356000107  MEMB      90              0.0000000000
     10319        90  SAPE      H4X            33.9782320527       23.1851349503       12.8310447660  MEMB      90              0.0000000000
     10320        90  SAPE      H4Y            32.3308997291       22.8392406353       12.3458471674  MEMB      90              0.0000000000
     10321        90  SAPE      C35            33.5053568296       21.0685120469       12.6577321447  MEMB      90              0.0000000000
     10322        90  SAPE      H5X            32.7618988000       20.3816324903       13.1208046760  MEMB      90              0.0000000000
     10323        90  SAPE      H5Y            34.5056101207       20.8210311195       13.0759775384  MEMB      90              0.0000000000
     10324        90  SAPE      C36            33.5211496088       20.8098068486       11.1314595728  MEMB      90              0.0000000000
     10325        90  SAPE      H6X            32.4880588133       20.9316524432       10.7406247921  MEMB      90              0.0000000000
     10326        90  SAPE      H6Y            33.8252068824       19.7517933485       10.9556836460  MEMB      90              0.0000000000
     10327        90  SAPE      C37            34.4769586840       21.7320230238       10.3629553449  MEMB      90              0.0000000000
     10328        90  SAPE      H7X            35.5081926357       21.3729662577       10.5981295832  MEMB      90              0.0000000000
     10329        90  SAPE      H7Y            34.3948345045       22.7718580089       10.7362598552  MEMB      90              0.0000000000
     10330        90  SAPE      C38            34.3225059384       21.7834241022        8.8257168870  MEMB      90              0.0000000000
     10331        90  SAPE      H8X            34.3889765529       20.7530294510        8.4133335921  MEMB      90              0.0000000000
     10332        90  SAPE      H8Y            35.2117799393       22.3598518822        8.4804993242  MEMB      90              0.0000000000
     10333        90  SAPE      C39            33.0814866733       22.5170508962        8.2484540485  MEMB      90              0.0000000000
     10334        90  SAPE      H9X            32.9537399459       23.4842522207        8.7799511898  MEMB      90              0.0000000000
     10335        90  SAPE      H9Y            32.2108462454       21.8832188949        8.4565334006  MEMB      90              0.0000000000
     10336        90  SAPE      C310           33.2157510376       22.7919802444        6.7274509539  MEMB      90              0.0000000000
     10337        90  SAPE      H10X           33.4289021749       21.8309978078        6.2082921399  MEMB      90              0.0000000000
     10338        90  SAPE      H10Y           34.1271193113       23.4251650053        6.6584920037  MEMB      90              0.0000000000
     10339        90  SAPE      C311           32.1118763366       23.5422819830        5.9131291731  MEMB      90              0.0000000000
     10340        90  SAPE      H11X           31.7115220146       24.3925438133        6.5031007015  MEMB      90              0.0000000000
     10341        90  SAPE      H11Y           31.2783201460       22.8516250552        5.6742391730  MEMB      90              0.0000000000
     10342        90  SAPE      C312           32.7525199729       24.0493971828        4.5920009936  MEMB      90              0.0000000000
     10343        90  SAPE      H12X           33.1948242409       23.1478272225        4.1046365307  MEMB      90              0.0000000000
     10344        90  SAPE      H12Y           33.5693738047       24.7425038991        4.9024628394  MEMB      90              0.0000000000
     10345        90  SAPE      C313           32.0137345537       24.8169440953        3.4764218023  MEMB      90              0.0000000000
     10346        90  SAPE      H13X           31.4082123449       25.6508976066        3.8903147628  MEMB      90              0.0000000000
     10347        90  SAPE      H13Y           31.3285934305       24.1401254094        2.9179994139  MEMB      90              0.0000000000
     10348        90  SAPE      C314           33.0583695076       25.4000825427        2.4764976396  MEMB      90              0.0000000000
     10349        90  SAPE      H14X           33.7018089284       26.1436314812        3.0007290722  MEMB      90              0.0000000000
     10350        90  SAPE      H14Y           32.5518163965       25.9077546236        1.6511449473  MEMB      90              0.0000000000
     10351        90  SAPE      C315           33.9244290144       24.3236731037        1.8085160709  MEMB      90              0.0000000000
     10352        90  SAPE      H15X           33.2686664214       23.4548169419        1.6163700687  MEMB      90              0.0000000000
     10353        90  SAPE      H15Y           34.5888418373       23.9290869435        2.5703502850  MEMB      90              0.0000000000
     10354        90  SAPE      C316           34.5846819388       24.5947049159        0.4224183429  MEMB      90              0.0000000000
     10355        90  SAPE      H16X           33.7624702587       24.7260334733       -0.2942715035  MEMB      90              0.0000000000
     10356        90  SAPE      H16Y           35.0491142248       23.6532343659        0.0924792436  MEMB      90              0.0000000000
     10357        90  SAPE      C317           35.7120078938       25.6321334077        0.1716157326  MEMB      90              0.0000000000
     10358        90  SAPE      H17X           36.1889406456       26.0286622435        1.0854516954  MEMB      90              0.0000000000
     10359        90  SAPE      H17Y           35.2292522768       26.5151649592       -0.2295258018  MEMB      90              0.0000000000
     10360        90  SAPE      C318           36.7850135205       25.1568685261       -0.8470519984  MEMB      90              0.0000000000
     10361        90  SAPE      H18X           36.3119457064       24.8505373639       -1.8041601242  MEMB      90              0.0000000000
     10362        90  SAPE      H18Y           37.3347752885       24.2736364230       -0.4617683136  MEMB      90              0.0000000000
     10363        90  SAPE      H18Z           37.5350047532       25.9452588078       -1.0748138219  MEMB      90              0.0000000000
     10364        91  OSM       N             -29.5044593409       31.4477170348       22.4991914765  MEMB      91              0.0000000000
     10365        91  OSM       C15           -28.4265526702       30.6247614173       21.8687429612  MEMB      91              0.0000000000
     10366        91  OSM       H15A          -28.1450701521       29.7796516521       22.4724314428  MEMB      91              0.0000000000
     10367        91  OSM       H15B          -27.5675296280       31.2813583482       21.6813841840  MEMB      91              0.0000000000
     10368        91  OSM       H15C          -28.7361285718       30.2467209146       20.8974535967  MEMB      91              0.0000000000
     10369        91  OSM       C14           -30.7701234383       30.6490050714       22.5468850342  MEMB      91              0.0000000000
     10370        91  OSM       H14A          -31.5593414308       31.2315792605       22.9999116878  MEMB      91              0.0000000000
     10371        91  OSM       H14B          -30.6696570371       29.7699332125       23.1896481640  MEMB      91              0.0000000000
     10372        91  OSM       H14C          -31.0844344203       30.2512051088       21.5904626873  MEMB      91              0.0000000000
     10373        91  OSM       C13           -29.1354237173       31.8070356374       23.9159572754  MEMB      91              0.0000000000
     10374        91  OSM       H13A          -28.2560440732       32.4478931161       23.9189348666  MEMB      91              0.0000000000
     10375        91  OSM       H13B          -28.9228433969       30.9309773662       24.5088968071  MEMB      91              0.0000000000
     10376        91  OSM       H13C          -29.9424612604       32.3258136634       24.4370585447  MEMB      91              0.0000000000
     10377        91  OSM       C12           -29.6329232722       32.7461567008       21.6886522412  MEMB      91              0.0000000000
     10378        91  OSM       H12A          -30.4377485133       33.3579778850       22.0734468522  MEMB      91              0.0000000000
     10379        91  OSM       H12B          -29.8538385781       32.5100095776       20.6537824596  MEMB      91              0.0000000000
     10380        91  OSM       C11           -28.4069971994       33.7038593753       21.6473109907  MEMB      91              0.0000000000
     10381        91  OSM       H11A          -28.1125128759       33.9975282676       22.6776424737  MEMB      91              0.0000000000
     10382        91  OSM       H11B          -28.7432193531       34.6524185396       21.1534877057  MEMB      91              0.0000000000
     10383        91  OSM       P             -26.8784547382       33.5976969587       19.5318676161  MEMB      91              0.0000000000
     10384        91  OSM       O13           -26.8563507599       35.0779700443       19.4202384066  MEMB      91              0.0000000000
     10385        91  OSM       O14           -25.6781398262       32.8400915482       19.1227576978  MEMB      91              0.0000000000
     10386        91  OSM       O11           -28.1664839184       33.0805310941       18.7481011880  MEMB      91              0.0000000000
     10387        91  OSM       O12           -27.2784648189       33.1231605161       20.9976390544  MEMB      91              0.0000000000
     10388        91  OSM       C1S           -28.3279582784       31.7302746864       18.3142008768  MEMB      91              0.0000000000
     10389        91  OSM       H1S           -29.2088669270       31.2855911710       18.8162263717  MEMB      91              0.0000000000
     10390        91  OSM       H1T           -27.4382623043       31.0989698470       18.5504492513  MEMB      91              0.0000000000
     10391        91  OSM       NF            -27.3987127931       32.3515900640       16.1999603897  MEMB      91              0.0000000000
     10392        91  OSM       HNF           -27.4943190248       33.3330327210       16.0752650669  MEMB      91              0.0000000000
     10393        91  OSM       C2S           -28.5339032979       31.6938035705       16.7775154572  MEMB      91              0.0000000000
     10394        91  OSM       H2S           -28.5467710266       30.6320498119       16.4413802526  MEMB      91              0.0000000000
     10395        91  OSM       C3S           -29.8731487350       32.3650970622       16.3593021145  MEMB      91              0.0000000000
     10396        91  OSM       H3S           -29.9611264334       33.3667824586       16.8307163822  MEMB      91              0.0000000000
     10397        91  OSM       O3            -31.0520866975       31.6401504198       16.7338589371  MEMB      91              0.0000000000
     10398        91  OSM       HO3           -30.7191338389       30.7891137560       17.0311405931  MEMB      91              0.0000000000
     10399        91  OSM       C4S           -29.9293719218       32.5199738418       14.8632669812  MEMB      91              0.0000000000
     10400        91  OSM       H4S           -29.9082945001       31.5607347151       14.3296204995  MEMB      91              0.0000000000
     10401        91  OSM       C5S           -29.9781308924       33.6596599733       14.1365740526  MEMB      91              0.0000000000
     10402        91  OSM       H5S           -29.9454434269       34.6424073653       14.6367309071  MEMB      91              0.0000000000
     10403        91  OSM       C6S           -30.0303050854       33.6663026660       12.6254725076  MEMB      91              0.0000000000
     10404        91  OSM       H6S           -31.0310031386       33.9909215345       12.2657236157  MEMB      91              0.0000000000
     10405        91  OSM       H6T           -29.9532120692       32.6295660636       12.2568389024  MEMB      91              0.0000000000
     10406        91  OSM       C7S           -28.9540550596       34.5246602775       11.9120569824  MEMB      91              0.0000000000
     10407        91  OSM       H7S           -28.0834384769       34.6964216870       12.5810418966  MEMB      91              0.0000000000
     10408        91  OSM       H7T           -29.3907759896       35.5245559311       11.6961610238  MEMB      91              0.0000000000
     10409        91  OSM       C8S           -28.4367486492       33.8995069242       10.5981968491  MEMB      91              0.0000000000
     10410        91  OSM       H8S           -28.9183782990       32.9146859154       10.4210153614  MEMB      91              0.0000000000
     10411        91  OSM       H8T           -27.3324469825       33.7593392495       10.5999629449  MEMB      91              0.0000000000
     10412        91  OSM       C9S           -28.6275937186       34.7626609293        9.3830829513  MEMB      91              0.0000000000
     10413        91  OSM       H9S           -27.8412560048       35.5542230833        9.3858135653  MEMB      91              0.0000000000
     10414        91  OSM       H9T           -29.6243137739       35.2496652457        9.4520183689  MEMB      91              0.0000000000
     10415        91  OSM       C10S          -28.5279561148       33.9731478439        8.0725981168  MEMB      91              0.0000000000
     10416        91  OSM       H10S          -29.3521437269       33.2274072226        8.0252758595  MEMB      91              0.0000000000
     10417        91  OSM       H10T          -27.5594429862       33.4301984586        8.0009754687  MEMB      91              0.0000000000
     10418        91  OSM       C11S          -28.6571540776       34.9984545703        6.9579921110  MEMB      91              0.0000000000
     10419        91  OSM       H11S          -27.6659866174       35.3772742335        6.6333857930  MEMB      91              0.0000000000
     10420        91  OSM       H11T          -29.1945803701       35.8099368405        7.4824370299  MEMB      91              0.0000000000
     10421        91  OSM       C12S          -29.6407366011       34.7380382695        5.8313061065  MEMB      91              0.0000000000
     10422        91  OSM       H12S          -29.7491094143       35.6286433266        5.1768189673  MEMB      91              0.0000000000
     10423        91  OSM       H12T          -30.6448557710       34.5752045573        6.2822516242  MEMB      91              0.0000000000
     10424        91  OSM       C13S          -29.2608689296       33.5583706178        4.9762889288  MEMB      91              0.0000000000
     10425        91  OSM       H13S          -29.0742276218       32.7038257614        5.6624414392  MEMB      91              0.0000000000
     10426        91  OSM       H13T          -28.3287820522       33.7648020494        4.4025983295  MEMB      91              0.0000000000
     10427        91  OSM       C14S          -30.4079079872       33.2265219204        4.0358614631  MEMB      91              0.0000000000
     10428        91  OSM       H14S          -31.3731817287       33.3838041410        4.5654281395  MEMB      91              0.0000000000
     10429        91  OSM       H14T          -30.3506663877       32.1453954220        3.7910130001  MEMB      91              0.0000000000
     10430        91  OSM       C15S          -30.3714553963       34.0653087834        2.7538081179  MEMB      91              0.0000000000
     10431        91  OSM       H15S          -29.3297355165       34.3916681055        2.5334175264  MEMB      91              0.0000000000
     10432        91  OSM       H15T          -30.9732989292       34.9905585088        2.8977397552  MEMB      91              0.0000000000
     10433        91  OSM       C16S          -30.8841406845       33.2645595403        1.5552553685  MEMB      91              0.0000000000
     10434        91  OSM       H16S          -31.1052497557       33.9618346830        0.7169388500  MEMB      91              0.0000000000
     10435        91  OSM       H16T          -31.8292566472       32.7534007342        1.8374581356  MEMB      91              0.0000000000
     10436        91  OSM       C17S          -29.8825382408       32.2057366917        1.0816540417  MEMB      91              0.0000000000
     10437        91  OSM       H17S          -29.6855371603       31.4801082451        1.9011273246  MEMB      91              0.0000000000
     10438        91  OSM       H17T          -28.9186572680       32.7108100289        0.8614838436  MEMB      91              0.0000000000
     10439        91  OSM       C18S          -30.3576557143       31.4450473239       -0.1542954104  MEMB      91              0.0000000000
     10440        91  OSM       H18S          -29.5747416644       30.7374673267       -0.5023752490  MEMB      91              0.0000000000
     10441        91  OSM       H18T          -30.5723243928       32.1551110515       -0.9776146483  MEMB      91              0.0000000000
     10442        91  OSM       H18U          -31.2886924327       30.8820177948        0.0693605270  MEMB      91              0.0000000000
     10443        91  OSM       C1F           -26.1920512338       31.8283579615       16.1317027723  MEMB      91              0.0000000000
     10444        91  OSM       OF            -26.0281849588       30.6191122601       16.2632968998  MEMB      91              0.0000000000
     10445        91  OSM       C2F           -25.0971647573       32.8334207841       15.9252717646  MEMB      91              0.0000000000
     10446        91  OSM       H2F           -24.3671534554       32.7084726797       16.7559601461  MEMB      91              0.0000000000
     10447        91  OSM       H2G           -25.5243579880       33.8566597400       16.0143246609  MEMB      91              0.0000000000
     10448        91  OSM       C3F           -24.3631507063       32.6904563388       14.5719459431  MEMB      91              0.0000000000
     10449        91  OSM       H3F           -23.9277655582       31.6789412572       14.5410638135  MEMB      91              0.0000000000
     10450        91  OSM       H3G           -23.4863059204       33.3814803032       14.5962719871  MEMB      91              0.0000000000
     10451        91  OSM       C4F           -25.1584298333       32.9755225530       13.2711542907  MEMB      91              0.0000000000
     10452        91  OSM       H4F           -24.5272971540       32.6802413021       12.4079653712  MEMB      91              0.0000000000
     10453        91  OSM       H4G           -25.2626083920       34.0851484904       13.1908047177  MEMB      91              0.0000000000
     10454        91  OSM       C5F           -26.5716871401       32.3618549394       13.0505174232  MEMB      91              0.0000000000
     10455        91  OSM       H5F           -26.9173927189       32.9134139545       12.1843034850  MEMB      91              0.0000000000
     10456        91  OSM       H5G           -27.2915303487       32.6166535706       13.8342821059  MEMB      91              0.0000000000
     10457        91  OSM       C6F           -26.7128584128       30.8983547115       12.5858218334  MEMB      91              0.0000000000
     10458        91  OSM       H6F           -26.6741066127       30.2236195811       13.4697264273  MEMB      91              0.0000000000
     10459        91  OSM       H6G           -25.8276880589       30.7326223096       11.9397005895  MEMB      91              0.0000000000
     10460        91  OSM       C7F           -27.9149486260       30.5206399524       11.6926828987  MEMB      91              0.0000000000
     10461        91  OSM       H7F           -28.7187014993       31.2538640225       11.8300064638  MEMB      91              0.0000000000
     10462        91  OSM       H7G           -28.3245258508       29.5335941246       12.0009910210  MEMB      91              0.0000000000
     10463        91  OSM       C8F           -27.5807779485       30.4814818053       10.1853067775  MEMB      91              0.0000000000
     10464        91  OSM       H8F           -27.3147389933       31.5241432174        9.9189961813  MEMB      91              0.0000000000
     10465        91  OSM       H8G           -28.4881750016       30.2402403253        9.5900110714  MEMB      91              0.0000000000
     10466        91  OSM       C9F           -26.4719423123       29.5129887348        9.8599623475  MEMB      91              0.0000000000
     10467        91  OSM       H9F           -26.5452118105       28.5231836147       10.3410399035  MEMB      91              0.0000000000
     10468        91  OSM       C10F          -25.3859371240       29.8027709399        9.1236267543  MEMB      91              0.0000000000
     10469        91  OSM       H10F          -24.6211070883       29.0213376655        8.9761488025  MEMB      91              0.0000000000
     10470        91  OSM       C11F          -25.0867957591       31.1379952931        8.4911519499  MEMB      91              0.0000000000
     10471        91  OSM       H11F          -24.0500739815       31.4385969388        8.7512156377  MEMB      91              0.0000000000
     10472        91  OSM       H11G          -25.7252196948       31.9638488618        8.8737033256  MEMB      91              0.0000000000
     10473        91  OSM       C12F          -25.2533882283       31.1247826979        6.9597605012  MEMB      91              0.0000000000
     10474        91  OSM       H12F          -24.5356312563       30.4195010434        6.4912345373  MEMB      91              0.0000000000
     10475        91  OSM       H12G          -24.9998674880       32.1434792258        6.6155915721  MEMB      91              0.0000000000
     10476        91  OSM       C13F          -26.6818120676       30.8686090934        6.4479157126  MEMB      91              0.0000000000
     10477        91  OSM       H13F          -27.3912580855       31.4426466196        7.0879587251  MEMB      91              0.0000000000
     10478        91  OSM       H13G          -26.9376294855       29.7942281458        6.5514489412  MEMB      91              0.0000000000
     10479        91  OSM       C14F          -26.9109931856       31.3389677819        4.9972061830  MEMB      91              0.0000000000
     10480        91  OSM       H14F          -26.7104366758       32.4340225897        4.9564664515  MEMB      91              0.0000000000
     10481        91  OSM       H14G          -27.9768437263       31.1630951976        4.7310973206  MEMB      91              0.0000000000
     10482        91  OSM       C15F          -26.0594548935       30.6626047348        3.9207112988  MEMB      91              0.0000000000
     10483        91  OSM       H15F          -26.1984345532       29.5602752773        3.9849485122  MEMB      91              0.0000000000
     10484        91  OSM       H15G          -24.9963340841       30.8876695641        4.1336040659  MEMB      91              0.0000000000
     10485        91  OSM       C16F          -26.3981081299       31.1309949303        2.4891591566  MEMB      91              0.0000000000
     10486        91  OSM       H16F          -27.4538589882       30.8825172090        2.2451902475  MEMB      91              0.0000000000
     10487        91  OSM       H16G          -25.7549550287       30.5732119516        1.7786903226  MEMB      91              0.0000000000
     10488        91  OSM       C17F          -26.1578714190       32.6209899664        2.2093219035  MEMB      91              0.0000000000
     10489        91  OSM       H17F          -25.2349883955       32.9435903110        2.7337801583  MEMB      91              0.0000000000
     10490        91  OSM       H17G          -27.0021825539       33.2174447476        2.6186814420  MEMB      91              0.0000000000
     10491        91  OSM       C18F          -25.9921606780       32.9200244284        0.7204541997  MEMB      91              0.0000000000
     10492        91  OSM       H18F          -25.8612402397       34.0097226752        0.5470603820  MEMB      91              0.0000000000
     10493        91  OSM       H18G          -26.8771569580       32.5718765138        0.1457885682  MEMB      91              0.0000000000
     10494        91  OSM       H18H          -25.0988789066       32.4003972815        0.3186275181  MEMB      91              0.0000000000
     10495        92  SAPS      N              23.8792163187      -38.0521783223       22.2901920146  MEMB      92              0.0000000000
     10496        92  SAPS      HN1            24.8177837359      -38.1991169011       22.7236081023  MEMB      92              0.0000000000
     10497        92  SAPS      HN2            23.4945580801      -37.1176706474       22.5555320985  MEMB      92              0.0000000000
     10498        92  SAPS      HN3            23.2252152630      -38.8079698747       22.5877519118  MEMB      92              0.0000000000
     10499        92  SAPS      C12            23.9934369402      -38.2231032952       20.7901316079  MEMB      92              0.0000000000
     10500        92  SAPS      H12A           25.0225619849      -38.0449473840       20.5023885533  MEMB      92              0.0000000000
     10501        92  SAPS      C13            23.6193366461      -39.6464435569       20.3058710281  MEMB      92              0.0000000000
     10502        92  SAPS      O13A           22.9853703076      -40.3658848140       21.1318282186  MEMB      92              0.0000000000
     10503        92  SAPS      O13B           23.5436688893      -39.8437215361       19.0669298607  MEMB      92              0.0000000000
     10504        92  SAPS      C11            23.0045295454      -37.2307146711       20.0985577196  MEMB      92              0.0000000000
     10505        92  SAPS      H11A           21.9638391607      -37.5737310048       20.3001716500  MEMB      92              0.0000000000
     10506        92  SAPS      H11B           23.1399784885      -37.2733895732       18.9906372627  MEMB      92              0.0000000000
     10507        92  SAPS      P              24.3984633727      -35.0194201520       20.3228548644  MEMB      92              0.0000000000
     10508        92  SAPS      O13            23.9625583632      -33.8494182204       19.5421214078  MEMB      92              0.0000000000
     10509        92  SAPS      O14            24.9667332185      -34.7481863815       21.6609777869  MEMB      92              0.0000000000
     10510        92  SAPS      O12            23.1245988648      -35.8960803282       20.5832956578  MEMB      92              0.0000000000
     10511        92  SAPS      O11            25.3751457796      -35.9378234338       19.5214695653  MEMB      92              0.0000000000
     10512        92  SAPS      C1             26.7250292964      -35.4752823565       19.5247176181  MEMB      92              0.0000000000
     10513        92  SAPS      HA             26.9997347696      -34.7710858243       20.3632580517  MEMB      92              0.0000000000
     10514        92  SAPS      HB             27.3891908506      -36.3425840349       19.7016812755  MEMB      92              0.0000000000
     10515        92  SAPS      C2             27.0674801004      -34.7310380718       18.2128063638  MEMB      92              0.0000000000
     10516        92  SAPS      HS             27.7115791182      -33.8855656964       18.5513521722  MEMB      92              0.0000000000
     10517        92  SAPS      O21            25.9023044910      -34.2798859427       17.4773772476  MEMB      92              0.0000000000
     10518        92  SAPS      C21            26.1520694580      -33.1946915702       16.7654695126  MEMB      92              0.0000000000
     10519        92  SAPS      O22            27.0292203809      -32.3846733370       17.0022078366  MEMB      92              0.0000000000
     10520        92  SAPS      C22            25.3036688705      -33.1199832056       15.4854291818  MEMB      92              0.0000000000
     10521        92  SAPS      H2R            24.9889689408      -34.1391186751       15.1864718618  MEMB      92              0.0000000000
     10522        92  SAPS      H2S            24.4076107031      -32.5137407998       15.6942245625  MEMB      92              0.0000000000
     10523        92  SAPS      C3             27.8970646067      -35.6333910397       17.2794507624  MEMB      92              0.0000000000
     10524        92  SAPS      HX             28.5021485618      -36.3278141535       17.8835951461  MEMB      92              0.0000000000
     10525        92  SAPS      HY             28.6039123093      -34.9758819810       16.7206427869  MEMB      92              0.0000000000
     10526        92  SAPS      O31            27.0686295421      -36.4679767615       16.4618203842  MEMB      92              0.0000000000
     10527        92  SAPS      C31            26.9618013448      -36.0707466097       15.2294675017  MEMB      92              0.0000000000
     10528        92  SAPS      O32            27.4629942761      -35.0775052163       14.7421229895  MEMB      92              0.0000000000
     10529        92  SAPS      C32            26.2764515610      -37.1557867487       14.4597834101  MEMB      92              0.0000000000
     10530        92  SAPS      H2X            25.1825565235      -36.9773188934       14.4497652557  MEMB      92              0.0000000000
     10531        92  SAPS      H2Y            26.4814005496      -38.1325168230       14.9439905186  MEMB      92              0.0000000000
     10532        92  SAPS      C23            26.1349280628      -32.4393632098       14.3512065560  MEMB      92              0.0000000000
     10533        92  SAPS      H3R            27.1681139452      -32.8557293939       14.3387411037  MEMB      92              0.0000000000
     10534        92  SAPS      H3S            26.2776616643      -31.3703664954       14.5998060661  MEMB      92              0.0000000000
     10535        92  SAPS      C24            25.5950937761      -32.5738000274       12.9075904578  MEMB      92              0.0000000000
     10536        92  SAPS      H4R            25.8507922000      -33.5878472948       12.5308571868  MEMB      92              0.0000000000
     10537        92  SAPS      H4S            26.1607748740      -31.8606504032       12.2650421834  MEMB      92              0.0000000000
     10538        92  SAPS      C25            24.1157305367      -32.2960162341       12.8231144386  MEMB      92              0.0000000000
     10539        92  SAPS      H5R            23.7503648826      -31.6148309712       13.6046428789  MEMB      92              0.0000000000
     10540        92  SAPS      C26            23.2321278721      -32.7624029393       11.9159546966  MEMB      92              0.0000000000
     10541        92  SAPS      H6R            22.1727958155      -32.4899173720       12.0470129746  MEMB      92              0.0000000000
     10542        92  SAPS      C27            23.4841325822      -33.6813903379       10.7428369297  MEMB      92              0.0000000000
     10543        92  SAPS      H7R            24.1071506880      -33.1399106339        9.9956591853  MEMB      92              0.0000000000
     10544        92  SAPS      H7S            22.5149107544      -33.8625840420       10.2256460610  MEMB      92              0.0000000000
     10545        92  SAPS      C28            24.0747916854      -35.0337216217       11.0748467057  MEMB      92              0.0000000000
     10546        92  SAPS      H8R            23.5343861031      -35.6132216795       11.8404493112  MEMB      92              0.0000000000
     10547        92  SAPS      C29            25.1814238175      -35.5725549705       10.5224360752  MEMB      92              0.0000000000
     10548        92  SAPS      H9R            25.4707665235      -36.5874741913       10.8228811748  MEMB      92              0.0000000000
     10549        92  SAPS      C210           26.0783151448      -34.9753196837        9.4651311659  MEMB      92              0.0000000000
     10550        92  SAPS      H10R           26.9499908885      -35.6478004014        9.3024938376  MEMB      92              0.0000000000
     10551        92  SAPS      H10S           26.4820840161      -33.9923651990        9.7975364090  MEMB      92              0.0000000000
     10552        92  SAPS      C211           25.3130567791      -34.8370288343        8.1856292613  MEMB      92              0.0000000000
     10553        92  SAPS      H11R           24.3679147153      -35.3898755197        8.1879591753  MEMB      92              0.0000000000
     10554        92  SAPS      C212           25.6344675112      -34.1201657154        7.1051735525  MEMB      92              0.0000000000
     10555        92  SAPS      H12R           24.9328558115      -34.1267768467        6.2566185528  MEMB      92              0.0000000000
     10556        92  SAPS      C213           26.8659386597      -33.2803647445        6.9255845851  MEMB      92              0.0000000000
     10557        92  SAPS      H13R           27.7134723178      -33.7422947676        7.4606437202  MEMB      92              0.0000000000
     10558        92  SAPS      H13S           26.7307574163      -32.2557532620        7.3374203361  MEMB      92              0.0000000000
     10559        92  SAPS      C214           27.1555765877      -33.2731902354        5.4549690529  MEMB      92              0.0000000000
     10560        92  SAPS      H14R           27.1687786320      -34.2703666811        4.9856510755  MEMB      92              0.0000000000
     10561        92  SAPS      C215           27.3725117439      -32.2217466750        4.6601588844  MEMB      92              0.0000000000
     10562        92  SAPS      H15R           27.4743279856      -32.4405020917        3.5899494291  MEMB      92              0.0000000000
     10563        92  SAPS      C216           27.3909434798      -30.7528447679        4.9905717595  MEMB      92              0.0000000000
     10564        92  SAPS      H16R           28.3717810126      -30.4567629463        5.4268633987  MEMB      92              0.0000000000
     10565        92  SAPS      H16S           26.6029407252      -30.5202618488        5.7394526035  MEMB      92              0.0000000000
     10566        92  SAPS      C217           27.1175287482      -29.9126737857        3.7177479992  MEMB      92              0.0000000000
     10567        92  SAPS      H17R           28.0204668658      -29.8770697968        3.0678680007  MEMB      92              0.0000000000
     10568        92  SAPS      H17S           26.8957044312      -28.8697687040        4.0344580814  MEMB      92              0.0000000000
     10569        92  SAPS      C218           25.9380576148      -30.4826563562        2.9084311584  MEMB      92              0.0000000000
     10570        92  SAPS      H18R           25.1962289563      -30.8569083463        3.6518445445  MEMB      92              0.0000000000
     10571        92  SAPS      H18S           26.2754935683      -31.3549738631        2.3078248152  MEMB      92              0.0000000000
     10572        92  SAPS      C219           25.2068553994      -29.5310561602        1.9609902912  MEMB      92              0.0000000000
     10573        92  SAPS      H19R           25.1595710942      -28.5083423961        2.3916974522  MEMB      92              0.0000000000
     10574        92  SAPS      H19S           24.1569597529      -29.9043313842        1.8793203011  MEMB      92              0.0000000000
     10575        92  SAPS      C220           25.7574799131      -29.5141410296        0.5420644559  MEMB      92              0.0000000000
     10576        92  SAPS      H20R           25.3463746777      -28.6422413188       -0.0013761386  MEMB      92              0.0000000000
     10577        92  SAPS      H20S           25.4269935308      -30.4230723236       -0.0038188241  MEMB      92              0.0000000000
     10578        92  SAPS      H20T           26.8675439954      -29.4786877909        0.5312722726  MEMB      92              0.0000000000
     10579        92  SAPS      C33            26.9138975184      -37.1049430768       13.0824832279  MEMB      92              0.0000000000
     10580        92  SAPS      H3X            28.0200642843      -36.9971627684       13.1506543096  MEMB      92              0.0000000000
     10581        92  SAPS      H3Y            26.5346751958      -36.1947315279       12.5757423206  MEMB      92              0.0000000000
     10582        92  SAPS      C34            26.6755437319      -38.3571867811       12.2684562294  MEMB      92              0.0000000000
     10583        92  SAPS      H4X            27.3254507608      -39.1749447374       12.6403196984  MEMB      92              0.0000000000
     10584        92  SAPS      H4Y            26.9856514790      -38.1518344868       11.2195453755  MEMB      92              0.0000000000
     10585        92  SAPS      C35            25.2244171280      -38.8054849271       12.3372091102  MEMB      92              0.0000000000
     10586        92  SAPS      H5X            24.5699718344      -37.9046014535       12.3701496363  MEMB      92              0.0000000000
     10587        92  SAPS      H5Y            25.0394112458      -39.3758207433       13.2746397933  MEMB      92              0.0000000000
     10588        92  SAPS      C36            24.8814661526      -39.6063542823       11.0902106621  MEMB      92              0.0000000000
     10589        92  SAPS      H6X            25.5104020896      -40.5123812124       10.9895348882  MEMB      92              0.0000000000
     10590        92  SAPS      H6Y            25.1526176159      -38.9473689696       10.2318412220  MEMB      92              0.0000000000
     10591        92  SAPS      C37            23.4016569604      -39.9634552739       11.0072732032  MEMB      92              0.0000000000
     10592        92  SAPS      H7X            22.9060948805      -39.7030278696       11.9730172321  MEMB      92              0.0000000000
     10593        92  SAPS      H7Y            23.2563555232      -41.0537679240       10.8377232974  MEMB      92              0.0000000000
     10594        92  SAPS      C38            22.7739242695      -39.1591778736        9.8770749024  MEMB      92              0.0000000000
     10595        92  SAPS      H8X            22.9722389864      -38.0805512571       10.0771519580  MEMB      92              0.0000000000
     10596        92  SAPS      H8Y            21.6853555029      -39.2732865107        9.8625952161  MEMB      92              0.0000000000
     10597        92  SAPS      C39            23.2804319825      -39.5188532556        8.4781016113  MEMB      92              0.0000000000
     10598        92  SAPS      H9X            22.6876574959      -40.3687757331        8.0751207866  MEMB      92              0.0000000000
     10599        92  SAPS      H9Y            24.3415642579      -39.8450624498        8.4985234140  MEMB      92              0.0000000000
     10600        92  SAPS      C310           23.1363128105      -38.3040936923        7.5681988124  MEMB      92              0.0000000000
     10601        92  SAPS      H10X           23.5529127844      -38.5112600755        6.5590493452  MEMB      92              0.0000000000
     10602        92  SAPS      H10Y           23.7337122463      -37.4765248947        8.0146382439  MEMB      92              0.0000000000
     10603        92  SAPS      C311           21.6701637988      -37.8843788703        7.4368956652  MEMB      92              0.0000000000
     10604        92  SAPS      H11X           21.2695727670      -37.5243982177        8.4096572028  MEMB      92              0.0000000000
     10605        92  SAPS      H11Y           21.0769949816      -38.7609484820        7.0988492213  MEMB      92              0.0000000000
     10606        92  SAPS      C312           21.4549656413      -36.8217563457        6.3796447143  MEMB      92              0.0000000000
     10607        92  SAPS      H12X           20.3814105939      -36.5753384900        6.3431325388  MEMB      92              0.0000000000
     10608        92  SAPS      H12Y           21.7262223786      -37.2967564787        5.4138078356  MEMB      92              0.0000000000
     10609        92  SAPS      C313           22.2930390337      -35.5734385133        6.6146377378  MEMB      92              0.0000000000
     10610        92  SAPS      H13X           23.3481250858      -35.8922886761        6.6906452962  MEMB      92              0.0000000000
     10611        92  SAPS      H13Y           21.9968081138      -35.0491526098        7.5526459010  MEMB      92              0.0000000000
     10612        92  SAPS      C314           22.2554471730      -34.6166195643        5.4421231927  MEMB      92              0.0000000000
     10613        92  SAPS      H14X           22.9254943938      -33.7559280023        5.6644688480  MEMB      92              0.0000000000
     10614        92  SAPS      H14Y           21.2141135276      -34.2384390756        5.3537389510  MEMB      92              0.0000000000
     10615        92  SAPS      C315           22.6675645776      -35.2522939719        4.1098801591  MEMB      92              0.0000000000
     10616        92  SAPS      H15X           22.4211311138      -34.4939072617        3.3469259664  MEMB      92              0.0000000000
     10617        92  SAPS      H15Y           22.0187960993      -36.1132162935        3.8576930824  MEMB      92              0.0000000000
     10618        92  SAPS      C316           24.1392799313      -35.6907688793        4.0265107679  MEMB      92              0.0000000000
     10619        92  SAPS      H16X           24.3950764311      -36.3422613993        4.8940573139  MEMB      92              0.0000000000
     10620        92  SAPS      H16Y           24.8030550787      -34.8004372155        4.0720056832  MEMB      92              0.0000000000
     10621        92  SAPS      C317           24.4413027382      -36.4939781892        2.7553674006  MEMB      92              0.0000000000
     10622        92  SAPS      H17X           23.8194696149      -36.1307975793        1.9092988227  MEMB      92              0.0000000000
     10623        92  SAPS      H17Y           24.1614773206      -37.5489173986        2.9508648661  MEMB      92              0.0000000000
     10624        92  SAPS      C318           25.9064851715      -36.4751902653        2.3490469917  MEMB      92              0.0000000000
     10625        92  SAPS      H18X           26.5285964531      -36.7318383113        3.2254326203  MEMB      92              0.0000000000
     10626        92  SAPS      H18Y           26.2047998994      -35.4810849686        1.9513726013  MEMB      92              0.0000000000
     10627        92  SAPS      H18Z           26.1068403812      -37.2424311007        1.5749772402  MEMB      92              0.0000000000
     10628        93  SAPC      N              34.6539567616      -26.1675689321       19.7697894393  MEMB      93              0.0000000000
     10629        93  SAPC      C12            34.9011922850      -27.5848196380       19.2781167706  MEMB      93              0.0000000000
     10630        93  SAPC      H12A           35.4118925485      -28.1352307948       20.0646760956  MEMB      93              0.0000000000
     10631        93  SAPC      H12B           35.5794021380      -27.5560167104       18.4358218898  MEMB      93              0.0000000000
     10632        93  SAPC      C13            33.5002008739      -26.1233374131       20.7110425455  MEMB      93              0.0000000000
     10633        93  SAPC      H13A           32.7173322561      -26.8050752799       20.3671252894  MEMB      93              0.0000000000
     10634        93  SAPC      H13B           33.7416581984      -26.4898740793       21.7074896266  MEMB      93              0.0000000000
     10635        93  SAPC      H13C           33.1237909327      -25.1119516998       20.7974337540  MEMB      93              0.0000000000
     10636        93  SAPC      C14            35.8600839104      -25.6295096904       20.4833428145  MEMB      93              0.0000000000
     10637        93  SAPC      H14A           36.2529796781      -26.2885534671       21.2495894424  MEMB      93              0.0000000000
     10638        93  SAPC      H14B           36.6710678968      -25.3981135018       19.8064387930  MEMB      93              0.0000000000
     10639        93  SAPC      H14C           35.6153377811      -24.6724221562       20.9581465125  MEMB      93              0.0000000000
     10640        93  SAPC      C15            34.3279616457      -25.2006510457       18.6854692665  MEMB      93              0.0000000000
     10641        93  SAPC      H15A           34.1428075876      -24.2116133185       19.1330234766  MEMB      93              0.0000000000
     10642        93  SAPC      H15B           35.1517652598      -25.0574619491       18.0060751078  MEMB      93              0.0000000000
     10643        93  SAPC      H15C           33.4390888491      -25.4496723601       18.1208674275  MEMB      93              0.0000000000
     10644        93  SAPC      C11            33.7085321996      -28.5121556649       18.9416781514  MEMB      93              0.0000000000
     10645        93  SAPC      H11A           34.0956671626      -29.3356726849       18.3141745498  MEMB      93              0.0000000000
     10646        93  SAPC      H11B           32.9486694198      -27.9757550974       18.3299596726  MEMB      93              0.0000000000
     10647        93  SAPC      P              33.4673814205      -30.4830609273       20.7474819850  MEMB      93              0.0000000000
     10648        93  SAPC      O13            33.7134705110      -30.2762320376       22.1857645473  MEMB      93              0.0000000000
     10649        93  SAPC      O14            32.4212673996      -31.4776873516       20.4444716097  MEMB      93              0.0000000000
     10650        93  SAPC      O12            33.1332783520      -29.0421653773       20.1270203881  MEMB      93              0.0000000000
     10651        93  SAPC      O11            34.8500934789      -30.9889423020       20.1583019075  MEMB      93              0.0000000000
     10652        93  SAPC      C1             35.3836026420      -32.2961352208       20.4853123906  MEMB      93              0.0000000000
     10653        93  SAPC      HA             35.9425715583      -32.2646279018       21.4432096155  MEMB      93              0.0000000000
     10654        93  SAPC      HB             34.5662897395      -33.0484576899       20.5852125285  MEMB      93              0.0000000000
     10655        93  SAPC      C2             36.3599340489      -32.9202583827       19.4045931552  MEMB      93              0.0000000000
     10656        93  SAPC      HS             36.9285708162      -33.7647751929       19.8485643067  MEMB      93              0.0000000000
     10657        93  SAPC      O21            37.2935771174      -32.0241176108       18.7931383672  MEMB      93              0.0000000000
     10658        93  SAPC      C21            37.6643471014      -30.9848502798       19.5031020510  MEMB      93              0.0000000000
     10659        93  SAPC      O22            37.9866449874      -30.9681611814       20.6789065150  MEMB      93              0.0000000000
     10660        93  SAPC      C22            37.1457469125      -29.7700478498       18.7020399900  MEMB      93              0.0000000000
     10661        93  SAPC      H2R            36.0666224696      -30.0065335591       18.6127028169  MEMB      93              0.0000000000
     10662        93  SAPC      H2S            37.2244317066      -28.8675117707       19.3209288792  MEMB      93              0.0000000000
     10663        93  SAPC      C3             35.4931044769      -33.4761104118       18.2659127482  MEMB      93              0.0000000000
     10664        93  SAPC      HX             34.8554325879      -34.2943840777       18.6598757418  MEMB      93              0.0000000000
     10665        93  SAPC      HY             36.1144680933      -33.9305930452       17.4576432429  MEMB      93              0.0000000000
     10666        93  SAPC      O31            34.6204451447      -32.4209420088       17.8259721125  MEMB      93              0.0000000000
     10667        93  SAPC      C31            34.8923355015      -31.9107762127       16.6595127150  MEMB      93              0.0000000000
     10668        93  SAPC      O32            35.8811576630      -32.1590731744       15.9866553809  MEMB      93              0.0000000000
     10669        93  SAPC      C32            33.6985001156      -31.0857657769       16.1852376787  MEMB      93              0.0000000000
     10670        93  SAPC      H2X            33.7183423698      -30.0553645098       16.5546792526  MEMB      93              0.0000000000
     10671        93  SAPC      H2Y            32.7773692980      -31.5506789972       16.5917107589  MEMB      93              0.0000000000
     10672        93  SAPC      C23            37.6076866341      -29.6240029311       17.2329805771  MEMB      93              0.0000000000
     10673        93  SAPC      H3R            37.9069292924      -30.6351694234       16.8599344070  MEMB      93              0.0000000000
     10674        93  SAPC      H3S            38.4967231646      -28.9905902736       17.1315016196  MEMB      93              0.0000000000
     10675        93  SAPC      C24            36.4773847363      -29.1597534271       16.2863580125  MEMB      93              0.0000000000
     10676        93  SAPC      H4R            35.5224721595      -29.2715109163       16.8175817270  MEMB      93              0.0000000000
     10677        93  SAPC      H4S            36.4622143421      -29.9034309678       15.4610780719  MEMB      93              0.0000000000
     10678        93  SAPC      C25            36.4962382093      -27.7764428187       15.7202219375  MEMB      93              0.0000000000
     10679        93  SAPC      H5R            36.5024236193      -26.9628155594       16.4597477697  MEMB      93              0.0000000000
     10680        93  SAPC      C26            36.3802492358      -27.4771783178       14.4127446214  MEMB      93              0.0000000000
     10681        93  SAPC      H6R            36.4456289107      -26.4236116932       14.1208506718  MEMB      93              0.0000000000
     10682        93  SAPC      C27            36.2116945984      -28.4105887467       13.2386037458  MEMB      93              0.0000000000
     10683        93  SAPC      H7R            35.3508408857      -28.0764569517       12.6154950084  MEMB      93              0.0000000000
     10684        93  SAPC      H7S            35.9866316695      -29.4464346861       13.5499198498  MEMB      93              0.0000000000
     10685        93  SAPC      C28            37.4642929617      -28.4669870567       12.4171531768  MEMB      93              0.0000000000
     10686        93  SAPC      H8R            38.3392673617      -28.0013758274       12.8872805124  MEMB      93              0.0000000000
     10687        93  SAPC      C29            37.6065787461      -29.0886315295       11.2317350112  MEMB      93              0.0000000000
     10688        93  SAPC      H9R            38.5479239152      -28.9604871850       10.6773695873  MEMB      93              0.0000000000
     10689        93  SAPC      C210           36.5457851614      -29.8506263830       10.4791419446  MEMB      93              0.0000000000
     10690        93  SAPC      H10R           35.6911261928      -30.1289853241       11.1380659196  MEMB      93              0.0000000000
     10691        93  SAPC      H10S           36.9509581002      -30.8025640545       10.0648177294  MEMB      93              0.0000000000
     10692        93  SAPC      C211           36.1139996758      -28.8694850891        9.4226848354  MEMB      93              0.0000000000
     10693        93  SAPC      H11R           35.4812786368      -28.0648317658        9.8277534324  MEMB      93              0.0000000000
     10694        93  SAPC      C212           36.3091687966      -28.9113170209        8.0903760764  MEMB      93              0.0000000000
     10695        93  SAPC      H12R           35.8808500492      -28.0969191444        7.4876416475  MEMB      93              0.0000000000
     10696        93  SAPC      C213           37.0031900125      -29.9541094749        7.2581265329  MEMB      93              0.0000000000
     10697        93  SAPC      H13R           36.3931556897      -30.0671849198        6.3339070283  MEMB      93              0.0000000000
     10698        93  SAPC      H13S           36.9564522352      -30.9491564422        7.7548804827  MEMB      93              0.0000000000
     10699        93  SAPC      C214           38.4143550474      -29.6107064316        6.8540709688  MEMB      93              0.0000000000
     10700        93  SAPC      H14R           38.7096399186      -28.5539067958        6.9499239124  MEMB      93              0.0000000000
     10701        93  SAPC      C215           39.3019397120      -30.4910796803        6.3590262599  MEMB      93              0.0000000000
     10702        93  SAPC      H15R           40.3099885763      -30.1432531695        6.0947471734  MEMB      93              0.0000000000
     10703        93  SAPC      C216           39.0587779234      -31.9581441004        6.1222583096  MEMB      93              0.0000000000
     10704        93  SAPC      H16R           38.2831423473      -32.3657673662        6.8086299045  MEMB      93              0.0000000000
     10705        93  SAPC      H16S           40.0007001421      -32.5043005633        6.3347070828  MEMB      93              0.0000000000
     10706        93  SAPC      C217           38.6630421059      -32.3335272927        4.6862451090  MEMB      93              0.0000000000
     10707        93  SAPC      H17R           38.4236905876      -33.4232524779        4.6810670125  MEMB      93              0.0000000000
     10708        93  SAPC      H17S           39.5294749614      -32.1901882583        4.0055793759  MEMB      93              0.0000000000
     10709        93  SAPC      C218           37.4537985430      -31.5678936636        4.1423108952  MEMB      93              0.0000000000
     10710        93  SAPC      H18R           37.7245014431      -30.5119146837        3.9217709998  MEMB      93              0.0000000000
     10711        93  SAPC      H18S           36.6482281212      -31.5576159774        4.9084731482  MEMB      93              0.0000000000
     10712        93  SAPC      C219           36.8915068898      -32.2370650954        2.8952758826  MEMB      93              0.0000000000
     10713        93  SAPC      H19R           35.8751921901      -31.8300309663        2.6912567597  MEMB      93              0.0000000000
     10714        93  SAPC      H19S           36.8099489457      -33.3272427516        3.1108997268  MEMB      93              0.0000000000
     10715        93  SAPC      C220           37.7550927851      -32.0478193239        1.6665121752  MEMB      93              0.0000000000
     10716        93  SAPC      H20R           37.8607227457      -30.9639791598        1.4538636484  MEMB      93              0.0000000000
     10717        93  SAPC      H20S           37.3201899956      -32.5432571665        0.7727689811  MEMB      93              0.0000000000
     10718        93  SAPC      H20T           38.7666413746      -32.4736557681        1.8511479671  MEMB      93              0.0000000000
     10719        93  SAPC      C33            33.6546129075      -31.0442741002       14.6539105703  MEMB      93              0.0000000000
     10720        93  SAPC      H3X            33.9780047644      -32.0135657973       14.2197443869  MEMB      93              0.0000000000
     10721        93  SAPC      H3Y            34.3590842302      -30.2813643032       14.2723027973  MEMB      93              0.0000000000
     10722        93  SAPC      C34            32.2603636298      -30.7460914865       14.1347378479  MEMB      93              0.0000000000
     10723        93  SAPC      H4X            32.0446364842      -29.6666136902       14.3092523747  MEMB      93              0.0000000000
     10724        93  SAPC      H4Y            31.4846313291      -31.3347866420       14.6753614765  MEMB      93              0.0000000000
     10725        93  SAPC      C35            32.2081433354      -31.0684986324       12.6427558816  MEMB      93              0.0000000000
     10726        93  SAPC      H5X            32.0977931785      -32.1655907401       12.4833635470  MEMB      93              0.0000000000
     10727        93  SAPC      H5Y            33.1781228694      -30.7540515680       12.1954371299  MEMB      93              0.0000000000
     10728        93  SAPC      C36            31.0756925073      -30.3008135793       11.9941653606  MEMB      93              0.0000000000
     10729        93  SAPC      H6X            31.1331840995      -29.2499695926       12.3631186406  MEMB      93              0.0000000000
     10730        93  SAPC      H6Y            30.1158701785      -30.7459567063       12.3445855301  MEMB      93              0.0000000000
     10731        93  SAPC      C37            31.0827363388      -30.2469831321       10.4685894357  MEMB      93              0.0000000000
     10732        93  SAPC      H7X            30.6542036228      -29.2563543759       10.1847519096  MEMB      93              0.0000000000
     10733        93  SAPC      H7Y            30.4204132944      -31.0427383425       10.0576961995  MEMB      93              0.0000000000
     10734        93  SAPC      C38            32.4229870905      -30.3101586096        9.7577736948  MEMB      93              0.0000000000
     10735        93  SAPC      H8X            32.8475396716      -31.3392201869        9.8116678865  MEMB      93              0.0000000000
     10736        93  SAPC      H8Y            33.1506063919      -29.6056556844       10.2183773168  MEMB      93              0.0000000000
     10737        93  SAPC      C39            32.1442388607      -29.9196505179        8.3112972920  MEMB      93              0.0000000000
     10738        93  SAPC      H9X            31.5913271109      -28.9528398048        8.2812640554  MEMB      93              0.0000000000
     10739        93  SAPC      H9Y            31.4827695857      -30.6969146659        7.8662599926  MEMB      93              0.0000000000
     10740        93  SAPC      C310           33.4011854701      -29.7701231284        7.4820015883  MEMB      93              0.0000000000
     10741        93  SAPC      H10X           34.1440842241      -30.5377689776        7.8015575502  MEMB      93              0.0000000000
     10742        93  SAPC      H10Y           33.8083132177      -28.7508952964        7.6555522573  MEMB      93              0.0000000000
     10743        93  SAPC      C311           33.1328756684      -29.9405388970        5.9996530651  MEMB      93              0.0000000000
     10744        93  SAPC      H11X           32.4721976184      -30.8223000853        5.8630157123  MEMB      93              0.0000000000
     10745        93  SAPC      H11Y           34.0928734504      -30.1586612651        5.4783237736  MEMB      93              0.0000000000
     10746        93  SAPC      C312           32.4454069139      -28.7213380913        5.3845137119  MEMB      93              0.0000000000
     10747        93  SAPC      H12X           33.1660594994      -27.8767476130        5.3189123952  MEMB      93              0.0000000000
     10748        93  SAPC      H12Y           31.6021788844      -28.3950214592        6.0344245744  MEMB      93              0.0000000000
     10749        93  SAPC      C313           31.8851004124      -29.0610701269        4.0034576283  MEMB      93              0.0000000000
     10750        93  SAPC      H13X           31.4663604023      -28.1503116299        3.5263139199  MEMB      93              0.0000000000
     10751        93  SAPC      H13Y           31.0199598985      -29.7349177529        4.1730295609  MEMB      93              0.0000000000
     10752        93  SAPC      C314           32.9239943356      -29.7414154867        3.0881721512  MEMB      93              0.0000000000
     10753        93  SAPC      H14X           32.4467955809      -30.0108341242        2.1239153013  MEMB      93              0.0000000000
     10754        93  SAPC      H14Y           33.2713004326      -30.6995849338        3.5345853024  MEMB      93              0.0000000000
     10755        93  SAPC      C315           34.1436872299      -28.8599937968        2.7942730711  MEMB      93              0.0000000000
     10756        93  SAPC      H15X           34.8234854994      -29.4141222416        2.1093324224  MEMB      93              0.0000000000
     10757        93  SAPC      H15Y           34.7017412716      -28.6698094273        3.7378465425  MEMB      93              0.0000000000
     10758        93  SAPC      C316           33.7241853404      -27.5313677835        2.1642036087  MEMB      93              0.0000000000
     10759        93  SAPC      H16X           33.0158221712      -26.9886565358        2.8298100058  MEMB      93              0.0000000000
     10760        93  SAPC      H16Y           33.1872664687      -27.7439125952        1.2113342165  MEMB      93              0.0000000000
     10761        93  SAPC      C317           34.8684019375      -26.5625425393        1.8835417494  MEMB      93              0.0000000000
     10762        93  SAPC      H17X           35.2367542264      -26.1245954207        2.8355248559  MEMB      93              0.0000000000
     10763        93  SAPC      H17Y           34.3953635808      -25.7422385304        1.3016989542  MEMB      93              0.0000000000
     10764        93  SAPC      C318           36.0617987957      -27.1550104215        1.1373068983  MEMB      93              0.0000000000
     10765        93  SAPC      H18X           36.6504113911      -26.3557141734        0.6453047254  MEMB      93              0.0000000000
     10766        93  SAPC      H18Y           35.7259838143      -27.8671376709        0.3560604305  MEMB      93              0.0000000000
     10767        93  SAPC      H18Z           36.7327429065      -27.6892771012        1.8439995625  MEMB      93              0.0000000000
     10768        94  SAPE      N             -33.8239161389       32.5922373319       19.2352629944  MEMB      94              0.0000000000
     10769        94  SAPE      HN1           -33.4559373311       33.0737355727       18.3921946311  MEMB      94              0.0000000000
     10770        94  SAPE      HN2           -34.8382407318       32.8011614370       19.3658195707  MEMB      94              0.0000000000
     10771        94  SAPE      HN3           -33.3372587041       32.9293541554       20.1014377116  MEMB      94              0.0000000000
     10772        94  SAPE      C12           -33.8051588065       31.0915320082       19.0598650746  MEMB      94              0.0000000000
     10773        94  SAPE      H12A          -32.7580928618       30.7593021561       18.9318598983  MEMB      94              0.0000000000
     10774        94  SAPE      H12B          -34.3606301944       30.8670870194       18.1216908051  MEMB      94              0.0000000000
     10775        94  SAPE      C11           -34.5002274472       30.3523661144       20.2326641015  MEMB      94              0.0000000000
     10776        94  SAPE      H11A          -33.7137115102       29.9912570772       20.9320780660  MEMB      94              0.0000000000
     10777        94  SAPE      H11B          -35.0108684165       29.4372806581       19.8446381663  MEMB      94              0.0000000000
     10778        94  SAPE      P             -36.8762171478       31.4997067330       20.5292238141  MEMB      94              0.0000000000
     10779        94  SAPE      O13           -37.8107925136       30.5061968092       21.0826718815  MEMB      94              0.0000000000
     10780        94  SAPE      O14           -37.0945980030       32.9275454696       20.8859278581  MEMB      94              0.0000000000
     10781        94  SAPE      O12           -35.3961617099       31.1745815851       20.9771173846  MEMB      94              0.0000000000
     10782        94  SAPE      O11           -36.7294087792       31.3999154379       18.9445051898  MEMB      94              0.0000000000
     10783        94  SAPE      C1            -36.8844321418       32.5483846607       18.1040915239  MEMB      94              0.0000000000
     10784        94  SAPE      HA            -36.6040490040       33.5074761434       18.5972377667  MEMB      94              0.0000000000
     10785        94  SAPE      HB            -36.2205322807       32.4506018678       17.2108788927  MEMB      94              0.0000000000
     10786        94  SAPE      C2            -38.3341015236       32.6593045794       17.5895260750  MEMB      94              0.0000000000
     10787        94  SAPE      HS            -39.0450271951       32.4885874713       18.4312402017  MEMB      94              0.0000000000
     10788        94  SAPE      O21           -38.4646782204       31.6965613009       16.5395296159  MEMB      94              0.0000000000
     10789        94  SAPE      C21           -39.0281714981       30.5573884517       16.8520751267  MEMB      94              0.0000000000
     10790        94  SAPE      O22           -39.6458483443       30.3088080545       17.8742085763  MEMB      94              0.0000000000
     10791        94  SAPE      C22           -38.7686514703       29.5436492744       15.7253177411  MEMB      94              0.0000000000
     10792        94  SAPE      H2R           -38.9636515675       28.5307333583       16.1358153798  MEMB      94              0.0000000000
     10793        94  SAPE      H2S           -39.4989492701       29.7567554958       14.9215638067  MEMB      94              0.0000000000
     10794        94  SAPE      C3            -38.6111402850       34.0868396262       17.0416886060  MEMB      94              0.0000000000
     10795        94  SAPE      HX            -38.5336115587       34.7827491217       17.9027380456  MEMB      94              0.0000000000
     10796        94  SAPE      HY            -39.6650368100       34.1522618882       16.6731286327  MEMB      94              0.0000000000
     10797        94  SAPE      O31           -37.6246502850       34.4777799488       16.0553796563  MEMB      94              0.0000000000
     10798        94  SAPE      C31           -37.9083306003       33.9776402728       14.8562592364  MEMB      94              0.0000000000
     10799        94  SAPE      O32           -38.9313618550       33.3799143976       14.5677152969  MEMB      94              0.0000000000
     10800        94  SAPE      C32           -36.7885769053       34.2473171312       13.8581889667  MEMB      94              0.0000000000
     10801        94  SAPE      H2X           -35.9039210160       33.6326189638       14.1222397925  MEMB      94              0.0000000000
     10802        94  SAPE      H2Y           -36.5279868020       35.3234096231       13.8673914210  MEMB      94              0.0000000000
     10803        94  SAPE      C23           -37.3165095674       29.6144137818       15.1797038186  MEMB      94              0.0000000000
     10804        94  SAPE      H3R           -36.6086199396       29.3835857377       16.0070003742  MEMB      94              0.0000000000
     10805        94  SAPE      H3S           -37.0994473869       30.6475458633       14.8147268141  MEMB      94              0.0000000000
     10806        94  SAPE      C24           -37.0064161622       28.6434036044       14.0300984632  MEMB      94              0.0000000000
     10807        94  SAPE      H4R           -37.1857711957       27.5901114040       14.3263941267  MEMB      94              0.0000000000
     10808        94  SAPE      H4S           -35.9160521964       28.7015892273       13.8273725269  MEMB      94              0.0000000000
     10809        94  SAPE      C25           -37.8055170472       29.0236367735       12.8176434893  MEMB      94              0.0000000000
     10810        94  SAPE      H5R           -38.8821243785       28.8510196948       12.9183049521  MEMB      94              0.0000000000
     10811        94  SAPE      C26           -37.3157514181       29.5695136240       11.6921618257  MEMB      94              0.0000000000
     10812        94  SAPE      H6R           -38.0030218186       29.8175819049       10.8654371168  MEMB      94              0.0000000000
     10813        94  SAPE      C27           -35.8629498237       29.8942700759       11.4558030201  MEMB      94              0.0000000000
     10814        94  SAPE      H7R           -35.3147681175       30.0030491247       12.4131273072  MEMB      94              0.0000000000
     10815        94  SAPE      H7S           -35.7720473812       30.8885998569       10.9714955803  MEMB      94              0.0000000000
     10816        94  SAPE      C28           -35.1816967563       28.8195627281       10.6552957936  MEMB      94              0.0000000000
     10817        94  SAPE      H8R           -34.8649704043       27.9391019413       11.2356441705  MEMB      94              0.0000000000
     10818        94  SAPE      C29           -35.0474117988       28.8053162512        9.3203562978  MEMB      94              0.0000000000
     10819        94  SAPE      H9R           -34.6016119973       27.9189141078        8.8433647489  MEMB      94              0.0000000000
     10820        94  SAPE      C210          -35.5695042281       29.8715095669        8.3992440605  MEMB      94              0.0000000000
     10821        94  SAPE      H10R          -34.9356080319       30.7860542502        8.4306803868  MEMB      94              0.0000000000
     10822        94  SAPE      H10S          -36.5641372896       30.1934594959        8.7720556990  MEMB      94              0.0000000000
     10823        94  SAPE      C211          -35.6419033578       29.3394290871        6.9883053525  MEMB      94              0.0000000000
     10824        94  SAPE      H11R          -34.6947046507       28.9632632459        6.5708391446  MEMB      94              0.0000000000
     10825        94  SAPE      C212          -36.7602968324       29.2279163699        6.2515048557  MEMB      94              0.0000000000
     10826        94  SAPE      H12R          -36.6868395781       28.7675808863        5.2519467498  MEMB      94              0.0000000000
     10827        94  SAPE      C213          -38.1564321293       29.6061688540        6.6948740436  MEMB      94              0.0000000000
     10828        94  SAPE      H13R          -38.3770761113       30.6360630153        6.3712477483  MEMB      94              0.0000000000
     10829        94  SAPE      H13S          -38.2770094910       29.6456625290        7.7974135997  MEMB      94              0.0000000000
     10830        94  SAPE      C214          -39.1897512464       28.6873375259        6.1179603337  MEMB      94              0.0000000000
     10831        94  SAPE      H14R          -39.5483110990       27.8786772598        6.7756196267  MEMB      94              0.0000000000
     10832        94  SAPE      C215          -39.6597339719       28.8060901882        4.8697033930  MEMB      94              0.0000000000
     10833        94  SAPE      H15R          -40.3820125492       28.0708368525        4.4835004208  MEMB      94              0.0000000000
     10834        94  SAPE      C216          -39.2011224645       29.8704909306        3.9082285870  MEMB      94              0.0000000000
     10835        94  SAPE      H16R          -38.5506850556       30.6477938591        4.3672069024  MEMB      94              0.0000000000
     10836        94  SAPE      H16S          -40.0642539884       30.4153619660        3.4811726905  MEMB      94              0.0000000000
     10837        94  SAPE      C217          -38.3952827068       29.1934112409        2.8044846040  MEMB      94              0.0000000000
     10838        94  SAPE      H17R          -39.1361072568       28.8154746465        2.0675806623  MEMB      94              0.0000000000
     10839        94  SAPE      H17S          -37.8236877241       28.3136450827        3.1863826623  MEMB      94              0.0000000000
     10840        94  SAPE      C218          -37.3640575312       30.1291015402        2.1697618843  MEMB      94              0.0000000000
     10841        94  SAPE      H18R          -36.5832241869       30.3830008783        2.9240994177  MEMB      94              0.0000000000
     10842        94  SAPE      H18S          -37.8492237848       31.0830681708        1.8677359485  MEMB      94              0.0000000000
     10843        94  SAPE      C219          -36.7056140760       29.4825810416        0.9530954650  MEMB      94              0.0000000000
     10844        94  SAPE      H19R          -36.1580663864       28.5670163914        1.2724837053  MEMB      94              0.0000000000
     10845        94  SAPE      H19S          -35.9488538317       30.1885994009        0.5405014277  MEMB      94              0.0000000000
     10846        94  SAPE      C220          -37.7194037507       29.0866392131       -0.1236160215  MEMB      94              0.0000000000
     10847        94  SAPE      H20R          -38.4459069945       28.3487585716        0.2499173765  MEMB      94              0.0000000000
     10848        94  SAPE      H20S          -37.1951153925       28.6743430694       -1.0107767405  MEMB      94              0.0000000000
     10849        94  SAPE      H20T          -38.3495914371       29.9368551667       -0.4429936330  MEMB      94              0.0000000000
     10850        94  SAPE      C33           -37.3816678969       33.8356578603       12.5062780756  MEMB      94              0.0000000000
     10851        94  SAPE      H3X           -38.2605338268       34.4900524990       12.2868244158  MEMB      94              0.0000000000
     10852        94  SAPE      H3Y           -37.7545158171       32.7848880614       12.5672618962  MEMB      94              0.0000000000
     10853        94  SAPE      C34           -36.4836553467       33.8404102642       11.2797164044  MEMB      94              0.0000000000
     10854        94  SAPE      H4X           -35.5824489176       33.2044747320       11.4216852171  MEMB      94              0.0000000000
     10855        94  SAPE      H4Y           -36.1504300376       34.8706352203       11.0345664764  MEMB      94              0.0000000000
     10856        94  SAPE      C35           -37.3595384688       33.2656626359       10.1658624869  MEMB      94              0.0000000000
     10857        94  SAPE      H5X           -38.3855678966       33.6788846764       10.2582792281  MEMB      94              0.0000000000
     10858        94  SAPE      H5Y           -37.4498036496       32.1648607922       10.2972348319  MEMB      94              0.0000000000
     10859        94  SAPE      C36           -36.8926141963       33.5972906678        8.7648865308  MEMB      94              0.0000000000
     10860        94  SAPE      H6X           -35.8198380956       33.3180501827        8.7091005186  MEMB      94              0.0000000000
     10861        94  SAPE      H6Y           -36.9852947273       34.6872221785        8.5677154352  MEMB      94              0.0000000000
     10862        94  SAPE      C37           -37.7207356253       32.8168940270        7.7452688901  MEMB      94              0.0000000000
     10863        94  SAPE      H7X           -38.8016783933       33.0223721314        7.8650838749  MEMB      94              0.0000000000
     10864        94  SAPE      H7Y           -37.6038698793       31.7490872905        7.9978263957  MEMB      94              0.0000000000
     10865        94  SAPE      C38           -37.2790872952       33.0711565913        6.3038401316  MEMB      94              0.0000000000
     10866        94  SAPE      H8X           -37.4661519498       34.1281238514        6.0353858061  MEMB      94              0.0000000000
     10867        94  SAPE      H8Y           -37.8715373035       32.4508505732        5.5966611560  MEMB      94              0.0000000000
     10868        94  SAPE      C39           -35.7908162481       32.7865823125        6.1114501597  MEMB      94              0.0000000000
     10869        94  SAPE      H9X           -35.5891450269       31.7339154118        6.3590941171  MEMB      94              0.0000000000
     10870        94  SAPE      H9Y           -35.1756887446       33.4030879293        6.8005896873  MEMB      94              0.0000000000
     10871        94  SAPE      C310          -35.3127024482       33.0651819621        4.6978610676  MEMB      94              0.0000000000
     10872        94  SAPE      H10X          -36.0037393170       32.6054515106        3.9560523002  MEMB      94              0.0000000000
     10873        94  SAPE      H10Y          -34.3182747867       32.5764984645        4.5789164009  MEMB      94              0.0000000000
     10874        94  SAPE      C311          -35.1699610475       34.5757073625        4.4838854643  MEMB      94              0.0000000000
     10875        94  SAPE      H11X          -34.9732394323       35.0698464264        5.4622882057  MEMB      94              0.0000000000
     10876        94  SAPE      H11Y          -36.1355604405       34.9796396640        4.1060358005  MEMB      94              0.0000000000
     10877        94  SAPE      C312          -33.9993937379       34.9391520330        3.5673539172  MEMB      94              0.0000000000
     10878        94  SAPE      H12X          -33.0392284898       34.6969766262        4.0680727362  MEMB      94              0.0000000000
     10879        94  SAPE      H12Y          -34.0281122846       36.0360624103        3.3767307715  MEMB      94              0.0000000000
     10880        94  SAPE      C313          -34.0512490662       34.2250740471        2.2258167034  MEMB      94              0.0000000000
     10881        94  SAPE      H13X          -33.8959978920       33.1264695780        2.3277671211  MEMB      94              0.0000000000
     10882        94  SAPE      H13Y          -33.2473583467       34.6279456125        1.5696577115  MEMB      94              0.0000000000
     10883        94  SAPE      C314          -35.3929717079       34.4692549350        1.5746062051  MEMB      94              0.0000000000
     10884        94  SAPE      H14X          -35.7463553420       35.5000526418        1.8091814843  MEMB      94              0.0000000000
     10885        94  SAPE      H14Y          -36.1274961179       33.7417838113        1.9920365259  MEMB      94              0.0000000000
     10886        94  SAPE      C315          -35.2985867468       34.3226029333        0.0747753733  MEMB      94              0.0000000000
     10887        94  SAPE      H15X          -35.0029523427       33.2738070957       -0.1365854274  MEMB      94              0.0000000000
     10888        94  SAPE      H15Y          -34.4944865254       34.9781541647       -0.3349676010  MEMB      94              0.0000000000
     10889        94  SAPE      C316          -36.6209807094       34.6909162331       -0.5772363163  MEMB      94              0.0000000000
     10890        94  SAPE      H16X          -36.6794846185       34.1859653642       -1.5546108748  MEMB      94              0.0000000000
     10891        94  SAPE      H16Y          -36.6369620360       35.7694511728       -0.7887304943  MEMB      94              0.0000000000
     10892        94  SAPE      C317          -37.8756254876       34.4323065859        0.2500335074  MEMB      94              0.0000000000
     10893        94  SAPE      H17X          -37.8807440540       35.0687290465        1.1647169998  MEMB      94              0.0000000000
     10894        94  SAPE      H17Y          -37.9040680667       33.3671126854        0.5714419338  MEMB      94              0.0000000000
     10895        94  SAPE      C318          -39.1155998340       34.7678795740       -0.5501851652  MEMB      94              0.0000000000
     10896        94  SAPE      H18X          -39.9299713608       34.1023747604       -0.2199468916  MEMB      94              0.0000000000
     10897        94  SAPE      H18Y          -38.9533540656       34.5956997802       -1.6354784053  MEMB      94              0.0000000000
     10898        94  SAPE      H18Z          -39.4169057140       35.8280204303       -0.4139699969  MEMB      94              0.0000000000
     10899        95  SAPE      N              32.9546006082      -34.3748733300       22.5726954929  MEMB      95              0.0000000000
     10900        95  SAPE      HN1            32.5807291492      -33.6791056604       21.8783242482  MEMB      95              0.0000000000
     10901        95  SAPE      HN2            32.1627487840      -34.5604560579       23.2257434316  MEMB      95              0.0000000000
     10902        95  SAPE      HN3            33.7263665034      -33.9280165816       23.1031587227  MEMB      95              0.0000000000
     10903        95  SAPE      C12            33.3229480814      -35.6614276383       21.8814563123  MEMB      95              0.0000000000
     10904        95  SAPE      H12A           33.5259850731      -36.4462750450       22.6364582931  MEMB      95              0.0000000000
     10905        95  SAPE      H12B           34.1984368978      -35.4623863311       21.2307235400  MEMB      95              0.0000000000
     10906        95  SAPE      C11            32.1824358358      -36.1505929429       21.0318241921  MEMB      95              0.0000000000
     10907        95  SAPE      H11A           31.4162903070      -36.5840337070       21.7188452646  MEMB      95              0.0000000000
     10908        95  SAPE      H11B           32.5175081846      -36.9600912317       20.3411065650  MEMB      95              0.0000000000
     10909        95  SAPE      P              30.3510685465      -35.2717623961       19.5694097805  MEMB      95              0.0000000000
     10910        95  SAPE      O13            29.4327628829      -35.9708458252       20.4894778242  MEMB      95              0.0000000000
     10911        95  SAPE      O14            29.9311757585      -33.9872558388       18.9961415816  MEMB      95              0.0000000000
     10912        95  SAPE      O12            31.7088826837      -35.0227133284       20.3087025004  MEMB      95              0.0000000000
     10913        95  SAPE      O11            30.8027507939      -36.3214395908       18.4529289189  MEMB      95              0.0000000000
     10914        95  SAPE      C1             31.8941369677      -36.0344768181       17.5825321995  MEMB      95              0.0000000000
     10915        95  SAPE      HA             32.7991376766      -35.7289295698       18.1610504327  MEMB      95              0.0000000000
     10916        95  SAPE      HB             32.1836192356      -36.9425348008       17.0009910302  MEMB      95              0.0000000000
     10917        95  SAPE      C2             31.5205268829      -34.9236155020       16.5762139534  MEMB      95              0.0000000000
     10918        95  SAPE      HS             30.8964298327      -34.1494296635       17.0651101588  MEMB      95              0.0000000000
     10919        95  SAPE      O21            30.8427589824      -35.4665924149       15.4498038707  MEMB      95              0.0000000000
     10920        95  SAPE      C21            30.3185814359      -34.5178420973       14.6813246090  MEMB      95              0.0000000000
     10921        95  SAPE      O22            30.0897922253      -33.3662770098       15.0038072482  MEMB      95              0.0000000000
     10922        95  SAPE      C22            30.2505939558      -35.1020534788       13.3027909818  MEMB      95              0.0000000000
     10923        95  SAPE      H2R            31.2897730470      -35.1090728528       12.9057401979  MEMB      95              0.0000000000
     10924        95  SAPE      H2S            29.9105952256      -36.1511624542       13.4017939520  MEMB      95              0.0000000000
     10925        95  SAPE      C3             32.7696918234      -34.1719664118       16.1396457662  MEMB      95              0.0000000000
     10926        95  SAPE      HX             33.0719799505      -33.7324254908       17.1057993021  MEMB      95              0.0000000000
     10927        95  SAPE      HY             32.4900701287      -33.3346499641       15.4642557251  MEMB      95              0.0000000000
     10928        95  SAPE      O31            33.8366519606      -35.0096351709       15.6576924039  MEMB      95              0.0000000000
     10929        95  SAPE      C31            34.1893995971      -34.7559858629       14.4107774196  MEMB      95              0.0000000000
     10930        95  SAPE      O32            33.4871170165      -34.2450991466       13.5575385233  MEMB      95              0.0000000000
     10931        95  SAPE      C32            35.6790326955      -35.0504166125       14.2660872547  MEMB      95              0.0000000000
     10932        95  SAPE      H2X            35.8515931666      -36.1271916362       14.4635278098  MEMB      95              0.0000000000
     10933        95  SAPE      H2Y            36.2170331253      -34.4604005638       15.0355761874  MEMB      95              0.0000000000
     10934        95  SAPE      C23            29.3394758572      -34.3083647780       12.3603779493  MEMB      95              0.0000000000
     10935        95  SAPE      H3R            29.8549641484      -33.3658417381       12.0695766008  MEMB      95              0.0000000000
     10936        95  SAPE      H3S            28.3924340259      -33.9984085234       12.8491798430  MEMB      95              0.0000000000
     10937        95  SAPE      C24            28.9775284330      -35.1413155684       11.1284111515  MEMB      95              0.0000000000
     10938        95  SAPE      H4R            28.5976504688      -34.4186289237       10.3852464623  MEMB      95              0.0000000000
     10939        95  SAPE      H4S            28.1269918768      -35.8041189630       11.3407610677  MEMB      95              0.0000000000
     10940        95  SAPE      C25            30.1414795796      -35.9706743687       10.6522312240  MEMB      95              0.0000000000
     10941        95  SAPE      H5R            30.1342645453      -37.0363134619       10.9313494602  MEMB      95              0.0000000000
     10942        95  SAPE      C26            31.1590957488      -35.4607697931        9.9457407186  MEMB      95              0.0000000000
     10943        95  SAPE      H6R            32.0071037368      -36.0955913953        9.6688128068  MEMB      95              0.0000000000
     10944        95  SAPE      C27            31.2657319086      -34.0184430877        9.5341967159  MEMB      95              0.0000000000
     10945        95  SAPE      H7R            32.3154136998      -33.7820232274        9.2488757606  MEMB      95              0.0000000000
     10946        95  SAPE      H7S            31.0277250492      -33.3260607135       10.3675727294  MEMB      95              0.0000000000
     10947        95  SAPE      C28            30.2807496679      -33.8243719904        8.4107883105  MEMB      95              0.0000000000
     10948        95  SAPE      H8R            29.2241862183      -33.9518856177        8.6601705951  MEMB      95              0.0000000000
     10949        95  SAPE      C29            30.5972379913      -33.6009263449        7.1454367325  MEMB      95              0.0000000000
     10950        95  SAPE      H9R            29.7975426368      -33.5561536786        6.3866920023  MEMB      95              0.0000000000
     10951        95  SAPE      C210           32.0233526946      -33.5141465942        6.7088253573  MEMB      95              0.0000000000
     10952        95  SAPE      H10R           32.5821944061      -34.4231747420        7.0146949050  MEMB      95              0.0000000000
     10953        95  SAPE      H10S           32.5046492347      -32.6453599444        7.2065098474  MEMB      95              0.0000000000
     10954        95  SAPE      C211           32.0726193029      -33.3205850725        5.2366339444  MEMB      95              0.0000000000
     10955        95  SAPE      H11R           31.1340220422      -32.9836879484        4.7823217549  MEMB      95              0.0000000000
     10956        95  SAPE      C212           33.1028931188      -33.6047987171        4.4460104417  MEMB      95              0.0000000000
     10957        95  SAPE      H12R           32.9766926303      -33.3876487367        3.3770567568  MEMB      95              0.0000000000
     10958        95  SAPE      C213           34.4353083351      -34.1851965450        4.8612840572  MEMB      95              0.0000000000
     10959        95  SAPE      H13R           34.4715108033      -34.3657116422        5.9571007943  MEMB      95              0.0000000000
     10960        95  SAPE      H13S           35.2354622385      -33.4416455930        4.6666920125  MEMB      95              0.0000000000
     10961        95  SAPE      C214           34.7194924711      -35.4789330332        4.1314163114  MEMB      95              0.0000000000
     10962        95  SAPE      H14R           34.7752823175      -36.3712736507        4.7760225314  MEMB      95              0.0000000000
     10963        95  SAPE      C215           34.8887890578      -35.6195469820        2.7990181362  MEMB      95              0.0000000000
     10964        95  SAPE      H15R           35.0920997942      -36.6163459658        2.3804155145  MEMB      95              0.0000000000
     10965        95  SAPE      C216           34.8288914278      -34.4843783224        1.8070625618  MEMB      95              0.0000000000
     10966        95  SAPE      H16R           35.8494849315      -34.3613372051        1.3969081707  MEMB      95              0.0000000000
     10967        95  SAPE      H16S           34.6269848960      -33.5221795910        2.3170057280  MEMB      95              0.0000000000
     10968        95  SAPE      C217           33.8249268182      -34.5071732710        0.6324407349  MEMB      95              0.0000000000
     10969        95  SAPE      H17R           32.7946823223      -34.6753312187        0.9920120256  MEMB      95              0.0000000000
     10970        95  SAPE      H17S           34.0614189295      -35.3675828360       -0.0291654994  MEMB      95              0.0000000000
     10971        95  SAPE      C218           33.9058250089      -33.1627388048       -0.1368603282  MEMB      95              0.0000000000
     10972        95  SAPE      H18R           34.9280246232      -32.9958467619       -0.5349119944  MEMB      95              0.0000000000
     10973        95  SAPE      H18S           33.7558439482      -32.3333382335        0.5894525572  MEMB      95              0.0000000000
     10974        95  SAPE      C219           32.9261823661      -32.9823559685       -1.3056925830  MEMB      95              0.0000000000
     10975        95  SAPE      H19R           33.3311848975      -32.1827060444       -1.9706696239  MEMB      95              0.0000000000
     10976        95  SAPE      H19S           31.9623879232      -32.6082089349       -0.8960455739  MEMB      95              0.0000000000
     10977        95  SAPE      C220           32.6437209061      -34.2306619169       -2.1428224075  MEMB      95              0.0000000000
     10978        95  SAPE      H20R           32.1511456868      -35.0149774294       -1.5298657047  MEMB      95              0.0000000000
     10979        95  SAPE      H20S           33.5697102470      -34.6555006456       -2.5623586512  MEMB      95              0.0000000000
     10980        95  SAPE      H20T           31.9755879618      -33.9827075306       -2.9935416277  MEMB      95              0.0000000000
     10981        95  SAPE      C33            36.1694424916      -34.6711662592       12.8527942445  MEMB      95              0.0000000000
     10982        95  SAPE      H3X            37.2592057972      -34.4492032857       12.8633730429  MEMB      95              0.0000000000
     10983        95  SAPE      H3Y            35.6650985390      -33.7434147175       12.4964899105  MEMB      95              0.0000000000
     10984        95  SAPE      C34            35.8776728498      -35.8468379154       11.9217433680  MEMB      95              0.0000000000
     10985        95  SAPE      H4X            35.0168535474      -36.4016094234       12.3675058626  MEMB      95              0.0000000000
     10986        95  SAPE      H4Y            36.7302949383      -36.5582937213       11.9109490696  MEMB      95              0.0000000000
     10987        95  SAPE      C35            35.4389771734      -35.4969802539       10.4984686013  MEMB      95              0.0000000000
     10988        95  SAPE      H5X            36.3256411717      -35.2511719838        9.8769078249  MEMB      95              0.0000000000
     10989        95  SAPE      H5Y            34.7504597624      -34.6208153797       10.5081153941  MEMB      95              0.0000000000
     10990        95  SAPE      C36            34.6914884255      -36.7139902007        9.9535046372  MEMB      95              0.0000000000
     10991        95  SAPE      H6X            33.7750879706      -36.8651318625       10.5681372155  MEMB      95              0.0000000000
     10992        95  SAPE      H6Y            35.3377804885      -37.5994667737       10.1188269489  MEMB      95              0.0000000000
     10993        95  SAPE      C37            34.2932477402      -36.6995410596        8.4778512040  MEMB      95              0.0000000000
     10994        95  SAPE      H7X            35.2130265661      -36.7583998698        7.8542052878  MEMB      95              0.0000000000
     10995        95  SAPE      H7Y            33.7657533834      -35.7595336678        8.2157762552  MEMB      95              0.0000000000
     10996        95  SAPE      C38            33.3908911906      -37.9124874835        8.1954275314  MEMB      95              0.0000000000
     10997        95  SAPE      H8X            32.3565532494      -37.7465884394        8.5626256180  MEMB      95              0.0000000000
     10998        95  SAPE      H8Y            33.7902192611      -38.7586117154        8.7922404721  MEMB      95              0.0000000000
     10999        95  SAPE      C39            33.3581572744      -38.3241445599        6.7256014656  MEMB      95              0.0000000000
     11000        95  SAPE      H9X            33.1380001316      -39.4125089790        6.6352826084  MEMB      95              0.0000000000
     11001        95  SAPE      H9Y            34.3468481320      -38.1180995126        6.2674347970  MEMB      95              0.0000000000
     11002        95  SAPE      C310           32.3077631893      -37.5666369042        5.9422523062  MEMB      95              0.0000000000
     11003        95  SAPE      H10X           32.5279886492      -36.4762004702        6.0179959144  MEMB      95              0.0000000000
     11004        95  SAPE      H10Y           31.3090178792      -37.7412426986        6.4022739495  MEMB      95              0.0000000000
     11005        95  SAPE      C311           32.2867003391      -37.9637946184        4.4659730962  MEMB      95              0.0000000000
     11006        95  SAPE      H11X           31.8329057866      -38.9723449688        4.3469844925  MEMB      95              0.0000000000
     11007        95  SAPE      H11Y           33.3244271656      -38.0114592977        4.0662337553  MEMB      95              0.0000000000
     11008        95  SAPE      C312           31.4933790112      -36.9220840655        3.6791975684  MEMB      95              0.0000000000
     11009        95  SAPE      H12X           31.4351784224      -37.2200191218        2.6193566410  MEMB      95              0.0000000000
     11010        95  SAPE      H12Y           32.0820474504      -35.9842437897        3.7197437461  MEMB      95              0.0000000000
     11011        95  SAPE      C313           30.1274695570      -36.6560555495        4.3316833260  MEMB      95              0.0000000000
     11012        95  SAPE      H13X           30.2808147939      -36.0459461505        5.2496124868  MEMB      95              0.0000000000
     11013        95  SAPE      H13Y           29.7410879526      -37.6472215380        4.6567655305  MEMB      95              0.0000000000
     11014        95  SAPE      C314           29.0174712476      -35.9849878505        3.5114671856  MEMB      95              0.0000000000
     11015        95  SAPE      H14X           28.1322236425      -36.0074383250        4.1890311942  MEMB      95              0.0000000000
     11016        95  SAPE      H14Y           28.7728936518      -36.5913166810        2.6204041142  MEMB      95              0.0000000000
     11017        95  SAPE      C315           29.2186720853      -34.5141592188        3.1192506307  MEMB      95              0.0000000000
     11018        95  SAPE      H15X           29.4539423896      -33.9451405175        4.0404217928  MEMB      95              0.0000000000
     11019        95  SAPE      H15Y           28.2524934344      -34.1463419540        2.7033250347  MEMB      95              0.0000000000
     11020        95  SAPE      C316           30.3027303884      -34.2999641951        2.0659624477  MEMB      95              0.0000000000
     11021        95  SAPE      H16X           29.9769732733      -34.8825002377        1.1814209792  MEMB      95              0.0000000000
     11022        95  SAPE      H16Y           31.2406489419      -34.7657802728        2.4095870104  MEMB      95              0.0000000000
     11023        95  SAPE      C317           30.6624262131      -32.8517125431        1.6689006252  MEMB      95              0.0000000000
     11024        95  SAPE      H17X           30.2292509087      -32.6076742891        0.6798595108  MEMB      95              0.0000000000
     11025        95  SAPE      H17Y           31.7665085431      -32.8267371380        1.5330908007  MEMB      95              0.0000000000
     11026        95  SAPE      C318           30.3096561230      -31.7200722576        2.6262752276  MEMB      95              0.0000000000
     11027        95  SAPE      H18X           31.0649028789      -31.6492118691        3.4290940042  MEMB      95              0.0000000000
     11028        95  SAPE      H18Y           29.3169784449      -31.8445255054        3.0789192199  MEMB      95              0.0000000000
     11029        95  SAPE      H18Z           30.3089289992      -30.7443628955        2.0965103041  MEMB      95              0.0000000000
     11030        96  SOPE      N             -35.4030263218      -37.5342081748       22.2055584067  MEMB      96              0.0000000000
     11031        96  SOPE      HN1           -34.6104364200      -38.0623951130       21.7858208290  MEMB      96              0.0000000000
     11032        96  SOPE      HN2           -35.1933041333      -37.3722014866       23.2236112937  MEMB      96              0.0000000000
     11033        96  SOPE      HN3           -36.2588517508      -38.1498159941       22.1917306218  MEMB      96              0.0000000000
     11034        96  SOPE      C12           -35.5980860472      -36.2057013149       21.5261582836  MEMB      96              0.0000000000
     11035        96  SOPE      H12A          -36.1779230306      -35.5362341892       22.1771373821  MEMB      96              0.0000000000
     11036        96  SOPE      H12B          -36.1154018768      -36.3519988908       20.5551605020  MEMB      96              0.0000000000
     11037        96  SOPE      C11           -34.2302956126      -35.5973263009       21.3330369190  MEMB      96              0.0000000000
     11038        96  SOPE      H11A          -33.8669311816      -36.0989838817       20.3940178053  MEMB      96              0.0000000000
     11039        96  SOPE      H11B          -33.5674692524      -35.8723406320       22.1932634703  MEMB      96              0.0000000000
     11040        96  SOPE      P             -32.7959229902      -33.5275874237       20.8960723734  MEMB      96              0.0000000000
     11041        96  SOPE      O13           -32.2208881227      -33.0603772416       22.1754998135  MEMB      96              0.0000000000
     11042        96  SOPE      O14           -32.8028865832      -32.6059467493       19.7427778168  MEMB      96              0.0000000000
     11043        96  SOPE      O12           -34.2592536800      -34.1600282833       21.2218526809  MEMB      96              0.0000000000
     11044        96  SOPE      O11           -32.1076911277      -34.8812184536       20.4936735847  MEMB      96              0.0000000000
     11045        96  SOPE      C1            -30.7532099709      -35.1430017228       20.3305085328  MEMB      96              0.0000000000
     11046        96  SOPE      HA            -30.5982773392      -36.2455012258       20.3877698215  MEMB      96              0.0000000000
     11047        96  SOPE      HB            -30.1443177161      -34.6673744846       21.1320012171  MEMB      96              0.0000000000
     11048        96  SOPE      C2            -30.3356829392      -34.6636210774       18.9395674826  MEMB      96              0.0000000000
     11049        96  SOPE      HS            -30.4989769310      -33.5578661752       18.9152939747  MEMB      96              0.0000000000
     11050        96  SOPE      O21           -31.1264285498      -35.3552785238       17.9298447837  MEMB      96              0.0000000000
     11051        96  SOPE      C21           -31.4934645083      -34.6141162654       16.8922832048  MEMB      96              0.0000000000
     11052        96  SOPE      O22           -31.1965411550      -33.4508772455       16.7015840813  MEMB      96              0.0000000000
     11053        96  SOPE      C22           -32.2032341856      -35.4844002644       15.8407421711  MEMB      96              0.0000000000
     11054        96  SOPE      H2R           -33.2891980004      -35.4656298659       16.0680771904  MEMB      96              0.0000000000
     11055        96  SOPE      H2S           -31.8339256012      -36.5262069739       15.9113605008  MEMB      96              0.0000000000
     11056        96  SOPE      C3            -28.8226390555      -34.9405090545       18.8134376994  MEMB      96              0.0000000000
     11057        96  SOPE      HX            -28.6485972930      -36.0249269144       19.0158908994  MEMB      96              0.0000000000
     11058        96  SOPE      HY            -28.2729648018      -34.3618514117       19.5900855258  MEMB      96              0.0000000000
     11059        96  SOPE      O31           -28.3587245752      -34.6491159130       17.5040089224  MEMB      96              0.0000000000
     11060        96  SOPE      C31           -28.3293285897      -33.3757085940       17.1215279752  MEMB      96              0.0000000000
     11061        96  SOPE      O32           -28.3386989782      -32.4004449119       17.8492134473  MEMB      96              0.0000000000
     11062        96  SOPE      C32           -28.0660933116      -33.4247831707       15.6292924520  MEMB      96              0.0000000000
     11063        96  SOPE      H2X           -28.5134358454      -34.3686760802       15.2442845626  MEMB      96              0.0000000000
     11064        96  SOPE      H2Y           -26.9662910471      -33.4707182703       15.5233171546  MEMB      96              0.0000000000
     11065        96  SOPE      C23           -31.9683294536      -34.9214295757       14.4134224218  MEMB      96              0.0000000000
     11066        96  SOPE      H3R           -30.8924896674      -34.9854938861       14.1353948644  MEMB      96              0.0000000000
     11067        96  SOPE      H3S           -32.2449704945      -33.8409416700       14.4260283920  MEMB      96              0.0000000000
     11068        96  SOPE      C24           -32.8200931912      -35.5797563743       13.3203050639  MEMB      96              0.0000000000
     11069        96  SOPE      H4R           -32.4290016282      -36.5925486249       13.0782302440  MEMB      96              0.0000000000
     11070        96  SOPE      H4S           -33.8589048471      -35.6993963218       13.7020595914  MEMB      96              0.0000000000
     11071        96  SOPE      C25           -32.8808750104      -34.7190286575       12.0477568073  MEMB      96              0.0000000000
     11072        96  SOPE      H5R           -33.2275355512      -33.6954578984       12.3226726951  MEMB      96              0.0000000000
     11073        96  SOPE      H5S           -31.8658216004      -34.6203103888       11.6039388777  MEMB      96              0.0000000000
     11074        96  SOPE      C26           -33.8509625416      -35.2860779513       11.0054436366  MEMB      96              0.0000000000
     11075        96  SOPE      H6R           -33.4866915966      -36.2759250362       10.6572369327  MEMB      96              0.0000000000
     11076        96  SOPE      H6S           -34.8249802290      -35.4746403611       11.5015583854  MEMB      96              0.0000000000
     11077        96  SOPE      C27           -34.1077400421      -34.3340821121        9.8236923596  MEMB      96              0.0000000000
     11078        96  SOPE      H7R           -35.0027427365      -34.6928363532        9.2667569329  MEMB      96              0.0000000000
     11079        96  SOPE      H7S           -34.3493837704      -33.3196832387       10.2155566256  MEMB      96              0.0000000000
     11080        96  SOPE      C28           -32.9423401124      -34.2168734187        8.8325851260  MEMB      96              0.0000000000
     11081        96  SOPE      H8R           -33.2747084115      -33.5962453258        7.9833730093  MEMB      96              0.0000000000
     11082        96  SOPE      H8S           -32.1136365456      -33.6543319652        9.3159171289  MEMB      96              0.0000000000
     11083        96  SOPE      C29           -32.5239031055      -35.5694681944        8.3236828586  MEMB      96              0.0000000000
     11084        96  SOPE      H91           -33.3220447290      -36.1779737754        7.8692483263  MEMB      96              0.0000000000
     11085        96  SOPE      C210          -31.2745426578      -36.0470194770        8.3713883941  MEMB      96              0.0000000000
     11086        96  SOPE      H101          -31.0719366258      -37.0427056068        7.9515068361  MEMB      96              0.0000000000
     11087        96  SOPE      C211          -30.0882693689      -35.3032323124        8.9356139790  MEMB      96              0.0000000000
     11088        96  SOPE      H11R          -29.3187284115      -35.9990893727        9.3288416960  MEMB      96              0.0000000000
     11089        96  SOPE      H11S          -30.3670474960      -34.6548855288        9.7947658293  MEMB      96              0.0000000000
     11090        96  SOPE      C212          -29.4618371097      -34.4448731047        7.8188384867  MEMB      96              0.0000000000
     11091        96  SOPE      H12R          -28.6829961685      -33.8179085720        8.2810995751  MEMB      96              0.0000000000
     11092        96  SOPE      H12S          -30.2391475001      -33.7850203702        7.3932841218  MEMB      96              0.0000000000
     11093        96  SOPE      C213          -28.8274868234      -35.3218403435        6.7463228389  MEMB      96              0.0000000000
     11094        96  SOPE      H13R          -29.6443624430      -35.8503661825        6.2068523035  MEMB      96              0.0000000000
     11095        96  SOPE      H13S          -28.2116619792      -36.0154954043        7.3619704348  MEMB      96              0.0000000000
     11096        96  SOPE      C214          -27.8125671524      -34.8093684662        5.7251219693  MEMB      96              0.0000000000
     11097        96  SOPE      H14R          -26.8255446078      -35.1113323835        6.1368434493  MEMB      96              0.0000000000
     11098        96  SOPE      H14S          -27.8233438780      -33.7101530496        5.6201246028  MEMB      96              0.0000000000
     11099        96  SOPE      C215          -27.9424048765      -35.5545323739        4.3791141416  MEMB      96              0.0000000000
     11100        96  SOPE      H15R          -28.6716738707      -35.0310151826        3.7305322477  MEMB      96              0.0000000000
     11101        96  SOPE      H15S          -28.3348022891      -36.5707403576        4.5864587673  MEMB      96              0.0000000000
     11102        96  SOPE      C216          -26.5974750755      -35.8340735277        3.7007849435  MEMB      96              0.0000000000
     11103        96  SOPE      H16R          -25.9777613176      -34.9182667161        3.8118440571  MEMB      96              0.0000000000
     11104        96  SOPE      H16S          -26.6951759308      -36.0590997692        2.6136352977  MEMB      96              0.0000000000
     11105        96  SOPE      C217          -25.8691037571      -36.9987166186        4.3797310633  MEMB      96              0.0000000000
     11106        96  SOPE      H17R          -26.1936173876      -37.9879130757        3.9774850939  MEMB      96              0.0000000000
     11107        96  SOPE      H17S          -26.1545361296      -37.0146538166        5.4569282108  MEMB      96              0.0000000000
     11108        96  SOPE      C218          -24.3566914911      -36.8390177944        4.3002032672  MEMB      96              0.0000000000
     11109        96  SOPE      H18R          -23.9117826539      -36.9737381285        5.3085824301  MEMB      96              0.0000000000
     11110        96  SOPE      H18S          -24.0550206302      -35.8262778653        4.0118295059  MEMB      96              0.0000000000
     11111        96  SOPE      H18T          -23.9132962807      -37.5737840792        3.5953374017  MEMB      96              0.0000000000
     11112        96  SOPE      C33           -28.5106302814      -32.3022571148       14.6873509547  MEMB      96              0.0000000000
     11113        96  SOPE      H3X           -28.0443521249      -31.3337343249       14.9715109457  MEMB      96              0.0000000000
     11114        96  SOPE      H3Y           -29.6169767209      -32.1908389791       14.6990083924  MEMB      96              0.0000000000
     11115        96  SOPE      C34           -28.0072197995      -32.7712016386       13.3166468806  MEMB      96              0.0000000000
     11116        96  SOPE      H4X           -28.5890385643      -33.6709040264       13.0119441052  MEMB      96              0.0000000000
     11117        96  SOPE      H4Y           -26.9378049962      -33.0669527664       13.4277072915  MEMB      96              0.0000000000
     11118        96  SOPE      C35           -28.0663460123      -31.7582147044       12.1964200913  MEMB      96              0.0000000000
     11119        96  SOPE      H5X           -27.4650111304      -32.1421306298       11.3386224977  MEMB      96              0.0000000000
     11120        96  SOPE      H5Y           -27.6032274570      -30.8072527049       12.5380704877  MEMB      96              0.0000000000
     11121        96  SOPE      C36           -29.4999880281      -31.5381591870       11.7410800308  MEMB      96              0.0000000000
     11122        96  SOPE      H6X           -30.1425849200      -31.3931481417       12.6363527222  MEMB      96              0.0000000000
     11123        96  SOPE      H6Y           -29.8845783775      -32.4412905652       11.2183680715  MEMB      96              0.0000000000
     11124        96  SOPE      C37           -29.6050599911      -30.3096304987       10.8476313478  MEMB      96              0.0000000000
     11125        96  SOPE      H7X           -29.3331657804      -29.4246201869       11.4585387581  MEMB      96              0.0000000000
     11126        96  SOPE      H7Y           -30.6638577311      -30.1750662479       10.5409291250  MEMB      96              0.0000000000
     11127        96  SOPE      C38           -28.7481022617      -30.3796948556        9.5875704957  MEMB      96              0.0000000000
     11128        96  SOPE      H8X           -27.7360964077      -30.7877944969        9.7744419635  MEMB      96              0.0000000000
     11129        96  SOPE      H8Y           -28.6006294764      -29.3501666444        9.1942968063  MEMB      96              0.0000000000
     11130        96  SOPE      C39           -29.4772469033      -31.2215409551        8.5545163925  MEMB      96              0.0000000000
     11131        96  SOPE      H9X           -30.5131323487      -30.8262177482        8.4451163066  MEMB      96              0.0000000000
     11132        96  SOPE      H9Y           -29.6342202842      -32.2276942967        8.9761227040  MEMB      96              0.0000000000
     11133        96  SOPE      C310          -28.7992545399      -31.2200353700        7.1783005719  MEMB      96              0.0000000000
     11134        96  SOPE      H10X          -28.0600098350      -32.0422521269        7.1086784300  MEMB      96              0.0000000000
     11135        96  SOPE      H10Y          -28.2604422637      -30.2554529646        7.0416501302  MEMB      96              0.0000000000
     11136        96  SOPE      C311          -29.8799767302      -31.3259021032        6.1017604496  MEMB      96              0.0000000000
     11137        96  SOPE      H11X          -30.5491299369      -30.4764016177        6.3199163418  MEMB      96              0.0000000000
     11138        96  SOPE      H11Y          -30.5097461376      -32.2093228997        6.2951722882  MEMB      96              0.0000000000
     11139        96  SOPE      C312          -29.4281650735      -31.3243311423        4.6297517454  MEMB      96              0.0000000000
     11140        96  SOPE      H12X          -28.4724046182      -31.8813823608        4.5101218527  MEMB      96              0.0000000000
     11141        96  SOPE      H12Y          -29.2235910651      -30.2739009072        4.3177122883  MEMB      96              0.0000000000
     11142        96  SOPE      C313          -30.5000896997      -31.9104335726        3.6777565862  MEMB      96              0.0000000000
     11143        96  SOPE      H13X          -30.0801032724      -32.0040413704        2.6545835454  MEMB      96              0.0000000000
     11144        96  SOPE      H13Y          -31.3452540255      -31.1955046190        3.6024322447  MEMB      96              0.0000000000
     11145        96  SOPE      C314          -31.1317363395      -33.2456341974        4.1197499825  MEMB      96              0.0000000000
     11146        96  SOPE      H14X          -31.9451064271      -33.0079803514        4.8421481800  MEMB      96              0.0000000000
     11147        96  SOPE      H14Y          -30.3894338359      -33.8671565381        4.6597860855  MEMB      96              0.0000000000
     11148        96  SOPE      C315          -31.7504118707      -34.0423601387        2.9632961969  MEMB      96              0.0000000000
     11149        96  SOPE      H15X          -32.3743016317      -33.3430209814        2.3627926498  MEMB      96              0.0000000000
     11150        96  SOPE      H15Y          -32.4288618017      -34.8247304930        3.3748916948  MEMB      96              0.0000000000
     11151        96  SOPE      C316          -30.7001542438      -34.7202351726        2.0703908829  MEMB      96              0.0000000000
     11152        96  SOPE      H16X          -30.5033962413      -35.7439130332        2.4650798221  MEMB      96              0.0000000000
     11153        96  SOPE      H16Y          -29.7441314524      -34.1524883841        2.1213010400  MEMB      96              0.0000000000
     11154        96  SOPE      C317          -31.1046279214      -34.8104452005        0.5971995706  MEMB      96              0.0000000000
     11155        96  SOPE      H17X          -30.3385729892      -35.3985078127        0.0468265544  MEMB      96              0.0000000000
     11156        96  SOPE      H17Y          -31.0985361807      -33.7834116296        0.1629562569  MEMB      96              0.0000000000
     11157        96  SOPE      C318          -32.4787783004      -35.4327929549        0.3794977327  MEMB      96              0.0000000000
     11158        96  SOPE      H18X          -33.2540245439      -34.7756299206        0.8261430752  MEMB      96              0.0000000000
     11159        96  SOPE      H18Y          -32.5610102692      -36.4359183297        0.8469398919  MEMB      96              0.0000000000
     11160        96  SOPE      H18Z          -32.6869307352      -35.5407023096       -0.7068347577  MEMB      96              0.0000000000
     11161        97  CHL1      C3             -0.6481283440        4.0240404408      -17.2786537949  MEMB      97              0.0000000000
     11162        97  CHL1      H3             -1.6123927302        4.5734672575      -17.1851395523  MEMB      97              0.0000000000
     11163        97  CHL1      O3             -0.3291647000        3.9287510106      -18.6486967143  MEMB      97              0.0000000000
     11164        97  CHL1      H3'            -0.1968908867        4.8304457586      -18.9914499228  MEMB      97              0.0000000000
     11165        97  CHL1      C4              0.4615470985        4.7890693994      -16.5411107154  MEMB      97              0.0000000000
     11166        97  CHL1      H4A             1.4276702099        4.2630755684      -16.7144591822  MEMB      97              0.0000000000
     11167        97  CHL1      H4B             0.5604589934        5.8006380249      -16.9889801882  MEMB      97              0.0000000000
     11168        97  CHL1      C5              0.1551333892        4.8491314710      -15.0604128096  MEMB      97              0.0000000000
     11169        97  CHL1      C6              0.0017434800        6.0105861688      -14.3973937556  MEMB      97              0.0000000000
     11170        97  CHL1      H6              0.1245835491        6.9700592260      -14.9247012878  MEMB      97              0.0000000000
     11171        97  CHL1      C7             -0.2550889367        6.0813754726      -12.9172703211  MEMB      97              0.0000000000
     11172        97  CHL1      H7A             0.3520509449        6.8864720907      -12.4468246349  MEMB      97              0.0000000000
     11173        97  CHL1      H7B            -1.3262085067        6.3251016955      -12.7387183207  MEMB      97              0.0000000000
     11174        97  CHL1      C8              0.0612880164        4.7325641182      -12.2123942410  MEMB      97              0.0000000000
     11175        97  CHL1      H8              1.1677313055        4.6163791014      -12.1964020368  MEMB      97              0.0000000000
     11176        97  CHL1      C14            -0.4772020399        4.7254285132      -10.7982005262  MEMB      97              0.0000000000
     11177        97  CHL1      H14            -1.5912296709        4.8179074528      -10.8850981425  MEMB      97              0.0000000000
     11178        97  CHL1      C15            -0.0404199005        5.8627832323       -9.8688743044  MEMB      97              0.0000000000
     11179        97  CHL1      H15A            1.0531366844        6.0325781569       -9.9438351010  MEMB      97              0.0000000000
     11180        97  CHL1      H15B           -0.5574844609        6.7944951888      -10.1160189252  MEMB      97              0.0000000000
     11181        97  CHL1      C16            -0.4256317796        5.3602547890       -8.4779567701  MEMB      97              0.0000000000
     11182        97  CHL1      H16A            0.4170863656        5.5217575968       -7.7748643601  MEMB      97              0.0000000000
     11183        97  CHL1      H16B           -1.3257682434        5.8872814923       -8.0946909408  MEMB      97              0.0000000000
     11184        97  CHL1      C17            -0.7448880903        3.8414582398       -8.6388764099  MEMB      97              0.0000000000
     11185        97  CHL1      H17            -1.8580336311        3.7578835777       -8.6975490569  MEMB      97              0.0000000000
     11186        97  CHL1      C13            -0.2248030375        3.4386740477      -10.0272885457  MEMB      97              0.0000000000
     11187        97  CHL1      C18             1.3001783448        3.1645618472       -9.9504036246  MEMB      97              0.0000000000
     11188        97  CHL1      H18A            1.8542697158        4.0195475353       -9.5165115558  MEMB      97              0.0000000000
     11189        97  CHL1      H18B            1.5196112277        2.2672306456       -9.3410624790  MEMB      97              0.0000000000
     11190        97  CHL1      H18C            1.7202399643        2.9773547479      -10.9579632535  MEMB      97              0.0000000000
     11191        97  CHL1      C12            -1.0017473190        2.3176191272      -10.7419341817  MEMB      97              0.0000000000
     11192        97  CHL1      H12A           -0.8391222154        1.3321758458      -10.2632914600  MEMB      97              0.0000000000
     11193        97  CHL1      H12B           -2.0892483769        2.5441152785      -10.6996588383  MEMB      97              0.0000000000
     11194        97  CHL1      C11            -0.5625235359        2.2083404310      -12.2042015000  MEMB      97              0.0000000000
     11195        97  CHL1      H11A            0.4549770605        1.7679390878      -12.1836444300  MEMB      97              0.0000000000
     11196        97  CHL1      H11B           -1.2296754490        1.4785040436      -12.7093402368  MEMB      97              0.0000000000
     11197        97  CHL1      C9             -0.5741885103        3.5664127702      -12.9705661862  MEMB      97              0.0000000000
     11198        97  CHL1      H9             -1.6565590541        3.8450446378      -13.0479607004  MEMB      97              0.0000000000
     11199        97  CHL1      C10            -0.0417961308        3.4626094117      -14.4125897591  MEMB      97              0.0000000000
     11200        97  CHL1      C19             1.3373688273        2.7457319355      -14.3862787689  MEMB      97              0.0000000000
     11201        97  CHL1      H19A            1.2141396253        1.6938796704      -14.0629416269  MEMB      97              0.0000000000
     11202        97  CHL1      H19B            1.8133626292        2.6931964915      -15.3853973096  MEMB      97              0.0000000000
     11203        97  CHL1      H19C            2.0437056637        3.2509775986      -13.6961833362  MEMB      97              0.0000000000
     11204        97  CHL1      C1             -1.0819075624        2.6355797060      -15.2244726630  MEMB      97              0.0000000000
     11205        97  CHL1      H1A            -1.0971166939        1.5906148559      -14.8487471675  MEMB      97              0.0000000000
     11206        97  CHL1      H1B            -2.0912718790        3.0777652373      -15.0579127547  MEMB      97              0.0000000000
     11207        97  CHL1      C2             -0.8103018200        2.6029626324      -16.7289459796  MEMB      97              0.0000000000
     11208        97  CHL1      H2A            -1.6405007993        2.0860677455      -17.2549700640  MEMB      97              0.0000000000
     11209        97  CHL1      H2B             0.1261534920        2.0289886851      -16.9124373031  MEMB      97              0.0000000000
     11210        97  CHL1      C20            -0.2886554976        3.0185210450       -7.4395799660  MEMB      97              0.0000000000
     11211        97  CHL1      H20             0.8151938447        3.1136785914       -7.3205334902  MEMB      97              0.0000000000
     11212        97  CHL1      C21            -0.6310745084        1.5413265889       -7.6688399283  MEMB      97              0.0000000000
     11213        97  CHL1      H21A            0.1323336453        1.0193124461       -8.2750235332  MEMB      97              0.0000000000
     11214        97  CHL1      H21B           -1.5946449526        1.4736834428       -8.2168301648  MEMB      97              0.0000000000
     11215        97  CHL1      H21C           -0.7463633995        1.0086990826       -6.7042647619  MEMB      97              0.0000000000
     11216        97  CHL1      C22            -0.9403167091        3.5125377316       -6.1322322182  MEMB      97              0.0000000000
     11217        97  CHL1      H22A           -1.0290272992        4.6206349868       -6.1273815994  MEMB      97              0.0000000000
     11218        97  CHL1      H22B           -1.9752094560        3.1117690356       -6.0572538922  MEMB      97              0.0000000000
     11219        97  CHL1      C23            -0.1288826017        3.1373333137       -4.8857198586  MEMB      97              0.0000000000
     11220        97  CHL1      H23A           -0.0490551324        2.0340150555       -4.7956599755  MEMB      97              0.0000000000
     11221        97  CHL1      H23B            0.8951891505        3.5622956721       -4.9681240328  MEMB      97              0.0000000000
     11222        97  CHL1      C24            -0.8041794190        3.7137906088       -3.6481661086  MEMB      97              0.0000000000
     11223        97  CHL1      H24A           -0.9824359920        4.7833026534       -3.8603423135  MEMB      97              0.0000000000
     11224        97  CHL1      H24B           -1.7752706155        3.1858694536       -3.5238498679  MEMB      97              0.0000000000
     11225        97  CHL1      C25            -0.0156160000        3.6241802646       -2.3406550914  MEMB      97              0.0000000000
     11226        97  CHL1      H25             0.9574914551        4.1504030244       -2.4745588679  MEMB      97              0.0000000000
     11227        97  CHL1      C26            -0.7700827643        4.2952583196       -1.1867597111  MEMB      97              0.0000000000
     11228        97  CHL1      H26A           -1.7257084242        3.7776262656       -0.9719233772  MEMB      97              0.0000000000
     11229        97  CHL1      H26B           -0.1803197078        4.2747577359       -0.2476547239  MEMB      97              0.0000000000
     11230        97  CHL1      H26C           -0.9792267923        5.3563335017       -1.4331118706  MEMB      97              0.0000000000
     11231        97  CHL1      C27             0.2337580959        2.1627994281       -2.0072893242  MEMB      97              0.0000000000
     11232        97  CHL1      H27A            0.4497357044        2.0076250199       -0.9323592292  MEMB      97              0.0000000000
     11233        97  CHL1      H27B           -0.6948502302        1.6212443808       -2.2565562162  MEMB      97              0.0000000000
     11234        97  CHL1      H27C            1.0636873257        1.7527040453       -2.6191076101  MEMB      97              0.0000000000
     11235        98  CHL1      C3              3.6087082757       -2.6196957168      -17.5069110150  MEMB      98              0.0000000000
     11236        98  CHL1      H3              3.3084322060       -3.6951327512      -17.4545545107  MEMB      98              0.0000000000
     11237        98  CHL1      O3              4.0220133022       -2.3052989620      -18.8253700154  MEMB      98              0.0000000000
     11238        98  CHL1      H3'             3.2375669860       -2.4889289250      -19.3612651422  MEMB      98              0.0000000000
     11239        98  CHL1      C4              2.4179773758       -1.7234267939      -17.1173398123  MEMB      98              0.0000000000
     11240        98  CHL1      H4A             2.7345012943       -0.6619812709      -17.2393060976  MEMB      98              0.0000000000
     11241        98  CHL1      H4B             1.5958659163       -1.8977677090      -17.8449700430  MEMB      98              0.0000000000
     11242        98  CHL1      C5              1.9813490821       -1.9893919674      -15.6868835071  MEMB      98              0.0000000000
     11243        98  CHL1      C6              0.7384561919       -2.3990601693      -15.3717546239  MEMB      98              0.0000000000
     11244        98  CHL1      H6             -0.0064093091       -2.4918565134      -16.1732309168  MEMB      98              0.0000000000
     11245        98  CHL1      C7              0.2665276579       -2.7064726039      -13.9710085853  MEMB      98              0.0000000000
     11246        98  CHL1      H7A            -0.7332900246       -2.2550831319      -13.7800581127  MEMB      98              0.0000000000
     11247        98  CHL1      H7B             0.1647538284       -3.8072096651      -13.8499518251  MEMB      98              0.0000000000
     11248        98  CHL1      C8              1.2408577404       -2.1701551381      -12.8887524857  MEMB      98              0.0000000000
     11249        98  CHL1      H8              1.0564634840       -1.0758262859      -12.8436791271  MEMB      98              0.0000000000
     11250        98  CHL1      C14             1.0125231544       -2.8173000912      -11.5154526514  MEMB      98              0.0000000000
     11251        98  CHL1      H14             1.3421065722       -3.8813155805      -11.6211970794  MEMB      98              0.0000000000
     11252        98  CHL1      C15            -0.4123798362       -2.9333198068      -10.9607280426  MEMB      98              0.0000000000
     11253        98  CHL1      H15A           -1.0266010084       -2.0716286348      -11.2912592694  MEMB      98              0.0000000000
     11254        98  CHL1      H15B           -0.8913753619       -3.8795823021      -11.2916242210  MEMB      98              0.0000000000
     11255        98  CHL1      C16            -0.2217763037       -2.9122443956       -9.4349664663  MEMB      98              0.0000000000
     11256        98  CHL1      H16A           -0.6451995287       -1.9526952088       -9.0737854368  MEMB      98              0.0000000000
     11257        98  CHL1      H16B           -0.7137184565       -3.7651031034       -8.9264646948  MEMB      98              0.0000000000
     11258        98  CHL1      C17             1.2911733726       -2.8481331693       -9.1135461223  MEMB      98              0.0000000000
     11259        98  CHL1      H17             1.6600284342       -3.8968618392       -9.0598846367  MEMB      98              0.0000000000
     11260        98  CHL1      C13             1.8696363904       -2.2153780756      -10.3960004907  MEMB      98              0.0000000000
     11261        98  CHL1      C18             1.5721006264       -0.6889204718      -10.3351082149  MEMB      98              0.0000000000
     11262        98  CHL1      H18A            0.4883993078       -0.4876913070      -10.2402808856  MEMB      98              0.0000000000
     11263        98  CHL1      H18B            2.0748858178       -0.1986365488       -9.4832690778  MEMB      98              0.0000000000
     11264        98  CHL1      H18C            1.9170998469       -0.1575425009      -11.2396799909  MEMB      98              0.0000000000
     11265        98  CHL1      C12             3.3106219990       -2.6089219617      -10.7659459582  MEMB      98              0.0000000000
     11266        98  CHL1      H12A            4.0612594117       -2.3538341571      -10.0067674357  MEMB      98              0.0000000000
     11267        98  CHL1      H12B            3.3526250219       -3.7124667210      -10.8375206761  MEMB      98              0.0000000000
     11268        98  CHL1      C11             3.6924159269       -2.0108406981      -12.1296106377  MEMB      98              0.0000000000
     11269        98  CHL1      H11A            3.6897292270       -0.9094238400      -12.0109488464  MEMB      98              0.0000000000
     11270        98  CHL1      H11B            4.7293730601       -2.3074525071      -12.3811719782  MEMB      98              0.0000000000
     11271        98  CHL1      C9              2.7083117544       -2.4043270219      -13.2721240421  MEMB      98              0.0000000000
     11272        98  CHL1      H9              2.7829781891       -3.5059082183      -13.3908719266  MEMB      98              0.0000000000
     11273        98  CHL1      C10             3.1128839367       -1.8539857867      -14.6552788976  MEMB      98              0.0000000000
     11274        98  CHL1      C19             3.4466334100       -0.3534863154      -14.4954208194  MEMB      98              0.0000000000
     11275        98  CHL1      H19A            4.4239468023       -0.2407915027      -13.9856552248  MEMB      98              0.0000000000
     11276        98  CHL1      H19B            3.5347188241        0.1862470123      -15.4592005750  MEMB      98              0.0000000000
     11277        98  CHL1      H19C            2.6670533509        0.1454362323      -13.8862025647  MEMB      98              0.0000000000
     11278        98  CHL1      C1              4.3753947481       -2.6386600904      -15.1237537338  MEMB      98              0.0000000000
     11279        98  CHL1      H1A             5.2345001904       -2.3985901318      -14.4634493630  MEMB      98              0.0000000000
     11280        98  CHL1      H1B             4.1725866288       -3.7270563212      -15.0306533528  MEMB      98              0.0000000000
     11281        98  CHL1      C2              4.7865273582       -2.3635226355      -16.5698063122  MEMB      98              0.0000000000
     11282        98  CHL1      H2A             5.6465378005       -3.0110684401      -16.8453749192  MEMB      98              0.0000000000
     11283        98  CHL1      H2B             5.0968949368       -1.2985530016      -16.6595423672  MEMB      98              0.0000000000
     11284        98  CHL1      C20             1.5879390252       -2.1764312110       -7.7470164267  MEMB      98              0.0000000000
     11285        98  CHL1      H20             1.4990889574       -1.0723274647       -7.8329137801  MEMB      98              0.0000000000
     11286        98  CHL1      C21             3.0241250449       -2.5209134759       -7.2969578030  MEMB      98              0.0000000000
     11287        98  CHL1      H21A            3.2571928562       -2.0284483484       -6.3305098948  MEMB      98              0.0000000000
     11288        98  CHL1      H21B            3.7764483555       -2.1728636710       -8.0264703458  MEMB      98              0.0000000000
     11289        98  CHL1      H21C            3.1345764185       -3.6165011528       -7.1566403437  MEMB      98              0.0000000000
     11290        98  CHL1      C22             0.6007495224       -2.5561768497       -6.6102105208  MEMB      98              0.0000000000
     11291        98  CHL1      H22A           -0.4442168777       -2.6157899639       -6.9668963680  MEMB      98              0.0000000000
     11292        98  CHL1      H22B            0.8769632583       -3.5616039548       -6.2473471355  MEMB      98              0.0000000000
     11293        98  CHL1      C23             0.5933270630       -1.5682959352       -5.4306234700  MEMB      98              0.0000000000
     11294        98  CHL1      H23A            1.6283703572       -1.3732189004       -5.0807536399  MEMB      98              0.0000000000
     11295        98  CHL1      H23B            0.1929524478       -0.5930650950       -5.7787296836  MEMB      98              0.0000000000
     11296        98  CHL1      C24            -0.2588894350       -2.0525513037       -4.2441789272  MEMB      98              0.0000000000
     11297        98  CHL1      H24A           -1.3039767361       -2.2190561582       -4.5796127504  MEMB      98              0.0000000000
     11298        98  CHL1      H24B            0.1212395174       -3.0295481152       -3.8774774747  MEMB      98              0.0000000000
     11299        98  CHL1      C25            -0.2026185928       -1.0612293167       -3.0656765716  MEMB      98              0.0000000000
     11300        98  CHL1      H25             0.0217726810       -0.0582307230       -3.4991114355  MEMB      98              0.0000000000
     11301        98  CHL1      C26            -1.5345817407       -0.9474167003       -2.3010310638  MEMB      98              0.0000000000
     11302        98  CHL1      H26A           -1.6635145196        0.0296940048       -1.8045140173  MEMB      98              0.0000000000
     11303        98  CHL1      H26B           -2.4004238651       -1.0950891072       -2.9783875325  MEMB      98              0.0000000000
     11304        98  CHL1      H26C           -1.5678054793       -1.6919457643       -1.4872657353  MEMB      98              0.0000000000
     11305        98  CHL1      C27             0.9360653367       -1.4635539038       -2.1155870244  MEMB      98              0.0000000000
     11306        98  CHL1      H27A            0.7805493534       -2.5119448339       -1.7758657290  MEMB      98              0.0000000000
     11307        98  CHL1      H27B            1.9181607935       -1.4159658230       -2.6318601817  MEMB      98              0.0000000000
     11308        98  CHL1      H27C            0.9697814340       -0.8057554104       -1.2237163200  MEMB      98              0.0000000000
     11309        99  OSM       N              -3.1794106737       -0.9769066130      -21.4669515047  MEMB      99              0.0000000000
     11310        99  OSM       C15            -2.6770878802        0.1034923028      -22.3630399718  MEMB      99              0.0000000000
     11311        99  OSM       H15A           -2.8385314040       -0.1548522970      -23.4073728213  MEMB      99              0.0000000000
     11312        99  OSM       H15B           -1.5955661239        0.2213327756      -22.2766134729  MEMB      99              0.0000000000
     11313        99  OSM       H15C           -3.1751436590        1.0397064543      -22.1762515955  MEMB      99              0.0000000000
     11314        99  OSM       C14            -2.3279796298       -2.1809372174      -21.7428017723  MEMB      99              0.0000000000
     11315        99  OSM       H14A           -2.7683842194       -3.0718515571      -21.2935357561  MEMB      99              0.0000000000
     11316        99  OSM       H14B           -1.3145653392       -2.0513690515      -21.3984690146  MEMB      99              0.0000000000
     11317        99  OSM       H14C           -2.2916543781       -2.3750220624      -22.8106004914  MEMB      99              0.0000000000
     11318        99  OSM       C13            -2.9621815003       -0.5100812979      -20.0694660317  MEMB      99              0.0000000000
     11319        99  OSM       H13A           -3.3796856080       -1.2175883167      -19.3688043334  MEMB      99              0.0000000000
     11320        99  OSM       H13B           -3.4202474064        0.4624656986      -19.9189470361  MEMB      99              0.0000000000
     11321        99  OSM       H13C           -1.8973540510       -0.4053328816      -19.8867192586  MEMB      99              0.0000000000
     11322        99  OSM       C12            -4.6568330571       -1.3186572705      -21.6885311252  MEMB      99              0.0000000000
     11323        99  OSM       H12A           -4.8249393169       -1.4891296011      -22.7480216301  MEMB      99              0.0000000000
     11324        99  OSM       H12B           -5.2891133388       -0.4823304002      -21.4108930462  MEMB      99              0.0000000000
     11325        99  OSM       C11            -5.1946529339       -2.5857083113      -20.9626785198  MEMB      99              0.0000000000
     11326        99  OSM       H11A           -6.3048788206       -2.6316946635      -21.0617700360  MEMB      99              0.0000000000
     11327        99  OSM       H11B           -4.9613357415       -2.5112371566      -19.8774647855  MEMB      99              0.0000000000
     11328        99  OSM       P              -4.5247656845       -5.1846759964      -20.9742268583  MEMB      99              0.0000000000
     11329        99  OSM       O13            -5.7498459290       -5.9080989154      -21.3992614705  MEMB      99              0.0000000000
     11330        99  OSM       O14            -3.2416344254       -5.7606101905      -21.4229247563  MEMB      99              0.0000000000
     11331        99  OSM       O11            -4.4803456107       -4.9946435022      -19.4130639368  MEMB      99              0.0000000000
     11332        99  OSM       O12            -4.6135394162       -3.7280816993      -21.5602166712  MEMB      99              0.0000000000
     11333        99  OSM       C1S            -5.2481631219       -5.8569704642      -18.5590440572  MEMB      99              0.0000000000
     11334        99  OSM       H1S            -5.0756507933       -6.9334079670      -18.7843841418  MEMB      99              0.0000000000
     11335        99  OSM       H1T            -6.3424333368       -5.6581206318      -18.6840622590  MEMB      99              0.0000000000
     11336        99  OSM       NF             -4.7398751165       -4.1698860521      -16.8064521964  MEMB      99              0.0000000000
     11337        99  OSM       HNF            -4.1177417906       -3.9715430326      -16.0653556180  MEMB      99              0.0000000000
     11338        99  OSM       C2S            -4.9249223269       -5.5878536342      -17.0610000308  MEMB      99              0.0000000000
     11339        99  OSM       H2S            -5.8032043134       -5.9194062845      -16.4607958405  MEMB      99              0.0000000000
     11340        99  OSM       C3S            -3.6670396924       -6.3568736359      -16.5192358768  MEMB      99              0.0000000000
     11341        99  OSM       H3S            -2.7805716059       -5.9934398898      -17.0786160204  MEMB      99              0.0000000000
     11342        99  OSM       O3             -3.6376887674       -7.7836823551      -16.5953124044  MEMB      99              0.0000000000
     11343        99  OSM       HO3            -4.4541353946       -8.1084936487      -16.9877915472  MEMB      99              0.0000000000
     11344        99  OSM       C4S            -3.4871508210       -5.9112856522      -15.0773068811  MEMB      99              0.0000000000
     11345        99  OSM       H4S            -2.6616552284       -5.2005348537      -14.9472015525  MEMB      99              0.0000000000
     11346        99  OSM       C5S            -4.2002402737       -6.2947028121      -13.9971467259  MEMB      99              0.0000000000
     11347        99  OSM       H5S            -4.9924641681       -7.0527114551      -14.1114363879  MEMB      99              0.0000000000
     11348        99  OSM       C6S            -3.9788922374       -5.7934972954      -12.5931074478  MEMB      99              0.0000000000
     11349        99  OSM       H6S            -4.9454746476       -5.4115177717      -12.1914827538  MEMB      99              0.0000000000
     11350        99  OSM       H6T            -3.2604920982       -4.9444461659      -12.5468617916  MEMB      99              0.0000000000
     11351        99  OSM       C7S            -3.4624187575       -6.8983904743      -11.6706197226  MEMB      99              0.0000000000
     11352        99  OSM       H7S            -2.4370842114       -7.1951250193      -11.9841285135  MEMB      99              0.0000000000
     11353        99  OSM       H7T            -4.1177176264       -7.7795961317      -11.7616222750  MEMB      99              0.0000000000
     11354        99  OSM       C8S            -3.4642208374       -6.5113737003      -10.1922303404  MEMB      99              0.0000000000
     11355        99  OSM       H8S            -2.9617641941       -5.5259007227      -10.1030799776  MEMB      99              0.0000000000
     11356        99  OSM       H8T            -2.8579119174       -7.2558817848       -9.6255185434  MEMB      99              0.0000000000
     11357        99  OSM       C9S            -4.8812168651       -6.4967550614       -9.5879828939  MEMB      99              0.0000000000
     11358        99  OSM       H9S            -5.3419141763       -7.4968684274       -9.7512750523  MEMB      99              0.0000000000
     11359        99  OSM       H9T            -5.5192215014       -5.7458448266      -10.1032847496  MEMB      99              0.0000000000
     11360        99  OSM       C10S           -4.8770852875       -6.1944154533       -8.0869353634  MEMB      99              0.0000000000
     11361        99  OSM       H10S           -4.2406531846       -6.9556448655       -7.5796166604  MEMB      99              0.0000000000
     11362        99  OSM       H10T           -5.9054857903       -6.2932863553       -7.6711852865  MEMB      99              0.0000000000
     11363        99  OSM       C11S           -4.3295301234       -4.7947969019       -7.7906291188  MEMB      99              0.0000000000
     11364        99  OSM       H11S           -5.1045848769       -4.0306317153       -7.9999835320  MEMB      99              0.0000000000
     11365        99  OSM       H11T           -3.4641563785       -4.5639557752       -8.4435213020  MEMB      99              0.0000000000
     11366        99  OSM       C12S           -3.8138212251       -4.6445987600       -6.3687660102  MEMB      99              0.0000000000
     11367        99  OSM       H12S           -3.2644905791       -3.6776516901       -6.2820918632  MEMB      99              0.0000000000
     11368        99  OSM       H12T           -3.0979463905       -5.4632905103       -6.1466936410  MEMB      99              0.0000000000
     11369        99  OSM       C13S           -4.9321815184       -4.6525354367       -5.3409825338  MEMB      99              0.0000000000
     11370        99  OSM       H13S           -5.5960924479       -5.5347495501       -5.4550124230  MEMB      99              0.0000000000
     11371        99  OSM       H13T           -5.5382423886       -3.7390452222       -5.5197110673  MEMB      99              0.0000000000
     11372        99  OSM       C14S           -4.3549932723       -4.6056674525       -3.9347025063  MEMB      99              0.0000000000
     11373        99  OSM       H14S           -4.8481425288       -3.7854182222       -3.3788470459  MEMB      99              0.0000000000
     11374        99  OSM       H14T           -3.2776911815       -4.3416154146       -4.0136745165  MEMB      99              0.0000000000
     11375        99  OSM       C15S           -4.5056823732       -5.9192397999       -3.1665143989  MEMB      99              0.0000000000
     11376        99  OSM       H15S           -3.7919523254       -6.6738156271       -3.5604581901  MEMB      99              0.0000000000
     11377        99  OSM       H15T           -5.5124083644       -6.3538743822       -3.3539599509  MEMB      99              0.0000000000
     11378        99  OSM       C16S           -4.3275141473       -5.7753293983       -1.6463105109  MEMB      99              0.0000000000
     11379        99  OSM       H16S           -3.6766380349       -6.6165691273       -1.3173269408  MEMB      99              0.0000000000
     11380        99  OSM       H16T           -5.3232299462       -5.9162222277       -1.1672920247  MEMB      99              0.0000000000
     11381        99  OSM       C17S           -3.7426898712       -4.4560025526       -1.0980872366  MEMB      99              0.0000000000
     11382        99  OSM       H17S           -3.7212364515       -4.5125084487        0.0127943560  MEMB      99              0.0000000000
     11383        99  OSM       H17T           -4.4140064130       -3.6058854426       -1.3399114250  MEMB      99              0.0000000000
     11384        99  OSM       C18S           -2.3277946463       -4.1409921899       -1.5633229686  MEMB      99              0.0000000000
     11385        99  OSM       H18S           -1.8307721761       -5.0665335599       -1.9093255856  MEMB      99              0.0000000000
     11386        99  OSM       H18T           -1.7355903075       -3.6797376762       -0.7417722592  MEMB      99              0.0000000000
     11387        99  OSM       H18U           -2.3327523332       -3.4504285627       -2.4288080723  MEMB      99              0.0000000000
     11388        99  OSM       C1F            -5.4624969441       -3.1324955174      -17.1734793267  MEMB      99              0.0000000000
     11389        99  OSM       OF             -6.5017085605       -3.1754528970      -17.8113991033  MEMB      99              0.0000000000
     11390        99  OSM       C2F            -4.9589485872       -1.8887791745      -16.5279548509  MEMB      99              0.0000000000
     11391        99  OSM       H2F            -5.2033983512       -1.0061512339      -17.1564646437  MEMB      99              0.0000000000
     11392        99  OSM       H2G            -3.8583487853       -1.9197763961      -16.3762504829  MEMB      99              0.0000000000
     11393        99  OSM       C3F            -5.6653573082       -1.8291673319      -15.1631899942  MEMB      99              0.0000000000
     11394        99  OSM       H3F            -6.7451092589       -2.0506915294      -15.3432471309  MEMB      99              0.0000000000
     11395        99  OSM       H3G            -5.6014987424       -0.8030267614      -14.7358874788  MEMB      99              0.0000000000
     11396        99  OSM       C4F            -5.2576393529       -2.8317509031      -14.0923686477  MEMB      99              0.0000000000
     11397        99  OSM       H4F            -5.0013135141       -3.8244148994      -14.4672070541  MEMB      99              0.0000000000
     11398        99  OSM       H4G            -6.1717893168       -3.0413959498      -13.4868350614  MEMB      99              0.0000000000
     11399        99  OSM       C5F            -4.1681802691       -2.2756597746      -13.1915400496  MEMB      99              0.0000000000
     11400        99  OSM       H5F            -3.8607161673       -1.2668281496      -13.5496584336  MEMB      99              0.0000000000
     11401        99  OSM       H5G            -3.2615917108       -2.9186441175      -13.2042981924  MEMB      99              0.0000000000
     11402        99  OSM       C6F            -4.7465012441       -2.1889541727      -11.7888749342  MEMB      99              0.0000000000
     11403        99  OSM       H6F            -4.6786888872       -3.1959166965      -11.3198937662  MEMB      99              0.0000000000
     11404        99  OSM       H6G            -5.8259424404       -1.9318316338      -11.8203678313  MEMB      99              0.0000000000
     11405        99  OSM       C7F            -4.1074878382       -1.1190911466      -10.9273297087  MEMB      99              0.0000000000
     11406        99  OSM       H7F            -4.4827311395       -0.1121014865      -11.2228237166  MEMB      99              0.0000000000
     11407        99  OSM       H7G            -3.0131548045       -1.1296878978      -11.1332465789  MEMB      99              0.0000000000
     11408        99  OSM       C8F            -4.4695465634       -1.4001276745       -9.4660440183  MEMB      99              0.0000000000
     11409        99  OSM       H8F            -5.0659849943       -2.3310852639       -9.4025931090  MEMB      99              0.0000000000
     11410        99  OSM       H8G            -5.1087242243       -0.5792251426       -9.0760855384  MEMB      99              0.0000000000
     11411        99  OSM       C9F            -3.1910057430       -1.6122154739       -8.7334548507  MEMB      99              0.0000000000
     11412        99  OSM       H9F            -2.6704682759       -2.5371379733       -9.0204955857  MEMB      99              0.0000000000
     11413        99  OSM       C10F           -2.7755467262       -0.9529458106       -7.6582909589  MEMB      99              0.0000000000
     11414        99  OSM       H10F           -1.7681056834       -1.1459195364       -7.2665929302  MEMB      99              0.0000000000
     11415        99  OSM       C11F           -3.5253733498        0.1329296413       -6.9488880105  MEMB      99              0.0000000000
     11416        99  OSM       H11F           -4.5213653877        0.3644988532       -7.3824665310  MEMB      99              0.0000000000
     11417        99  OSM       H11G           -2.9807628975        1.0895490376       -6.8317349974  MEMB      99              0.0000000000
     11418        99  OSM       C12F           -3.6897236212       -0.5232863640       -5.5921010270  MEMB      99              0.0000000000
     11419        99  OSM       H12F           -2.7025116076       -0.6663682389       -5.0924956724  MEMB      99              0.0000000000
     11420        99  OSM       H12G           -4.1689391983       -1.5310602061       -5.7058597012  MEMB      99              0.0000000000
     11421        99  OSM       C13F           -4.5712904768        0.2933992031       -4.6801322446  MEMB      99              0.0000000000
     11422        99  OSM       H13F           -5.0691226682        1.1284639163       -5.2254304260  MEMB      99              0.0000000000
     11423        99  OSM       H13G           -3.9350812398        0.7363113660       -3.8784807866  MEMB      99              0.0000000000
     11424        99  OSM       C14F           -5.6304883422       -0.6185413289       -4.0818626216  MEMB      99              0.0000000000
     11425        99  OSM       H14F           -5.1979685111       -1.6184651263       -3.8571973154  MEMB      99              0.0000000000
     11426        99  OSM       H14G           -6.4584045784       -0.7578804474       -4.8145977608  MEMB      99              0.0000000000
     11427        99  OSM       C15F           -6.1385151437       -0.0142126762       -2.7940173902  MEMB      99              0.0000000000
     11428        99  OSM       H15F           -7.2155091332       -0.2410412501       -2.6552057902  MEMB      99              0.0000000000
     11429        99  OSM       H15G           -6.0110656300        1.0657725309       -2.9746642840  MEMB      99              0.0000000000
     11430        99  OSM       C16F           -5.3022269235       -0.4160253234       -1.5780720425  MEMB      99              0.0000000000
     11431        99  OSM       H16F           -4.3190404858        0.1045303935       -1.6467069586  MEMB      99              0.0000000000
     11432        99  OSM       H16G           -5.1019030288       -1.5070333176       -1.6000297748  MEMB      99              0.0000000000
     11433        99  OSM       C17F           -5.9315341241       -0.0688535849       -0.2271339915  MEMB      99              0.0000000000
     11434        99  OSM       H17F           -6.0762580768        1.0287448708       -0.1913024574  MEMB      99              0.0000000000
     11435        99  OSM       H17G           -5.1639024193       -0.3152378693        0.5356608033  MEMB      99              0.0000000000
     11436        99  OSM       C18F           -7.2465613607       -0.7828074944        0.1274786697  MEMB      99              0.0000000000
     11437        99  OSM       H18F           -7.6032898772       -0.4615037792        1.1315728962  MEMB      99              0.0000000000
     11438        99  OSM       H18G           -7.1146232150       -1.8846962232        0.1444931700  MEMB      99              0.0000000000
     11439        99  OSM       H18H           -8.0473268827       -0.5282877489       -0.5976742432  MEMB      99              0.0000000000
     11440       100  SLPC      N               9.4619129826        4.1404068990      -17.2838674734  MEMB      100             0.0000000000
     11441       100  SLPC      C13            10.1931515970        3.8937465680      -15.9931473208  MEMB      100             0.0000000000
     11442       100  SLPC      H13A            9.4855359648        3.7210556307      -15.1840453308  MEMB      100             0.0000000000
     11443       100  SLPC      H13B           10.8528408406        3.0430382932      -16.0486667156  MEMB      100             0.0000000000
     11444       100  SLPC      H13C           10.7815516028        4.7738474163      -15.7345810125  MEMB      100             0.0000000000
     11445       100  SLPC      C14            10.4418367180        4.7315134161      -18.2552171875  MEMB      100             0.0000000000
     11446       100  SLPC      H14A            9.9566283576        5.1064250323      -19.1477063368  MEMB      100             0.0000000000
     11447       100  SLPC      H14B           10.9414643540        5.5942156252      -17.7885448606  MEMB      100             0.0000000000
     11448       100  SLPC      H14C           11.2113665130        4.0353083303      -18.5361811291  MEMB      100             0.0000000000
     11449       100  SLPC      C15             8.4246306617        5.1904210588      -17.0215133797  MEMB      100             0.0000000000
     11450       100  SLPC      H15A            7.7612502027        4.8272859801      -16.2452679732  MEMB      100             0.0000000000
     11451       100  SLPC      H15B            8.8974807886        6.1057027945      -16.6846837570  MEMB      100             0.0000000000
     11452       100  SLPC      H15C            7.7959210522        5.3607637980      -17.8866273523  MEMB      100             0.0000000000
     11453       100  SLPC      C12             8.7864506029        2.8887982070      -17.8283144312  MEMB      100             0.0000000000
     11454       100  SLPC      H12A            9.5612816884        2.2097683195      -18.1441517360  MEMB      100             0.0000000000
     11455       100  SLPC      H12B            8.2208600533        3.1796133654      -18.7071692080  MEMB      100             0.0000000000
     11456       100  SLPC      C11             7.8058779411        2.0871544012      -16.9215824654  MEMB      100             0.0000000000
     11457       100  SLPC      H11A            8.3043388153        1.8839756770      -15.9462608994  MEMB      100             0.0000000000
     11458       100  SLPC      H11B            7.5731348513        1.0926377481      -17.3672154419  MEMB      100             0.0000000000
     11459       100  SLPC      P               5.3712695777        3.0827488783      -17.5472473266  MEMB      100             0.0000000000
     11460       100  SLPC      O13             5.6446509356        4.3549694051      -18.2768737239  MEMB      100             0.0000000000
     11461       100  SLPC      O14             5.0890173158        1.8957871968      -18.3832365057  MEMB      100             0.0000000000
     11462       100  SLPC      O12             6.6203790638        2.7964708513      -16.6460343799  MEMB      100             0.0000000000
     11463       100  SLPC      O11             4.2697776186        3.3729892717      -16.4391994302  MEMB      100             0.0000000000
     11464       100  SLPC      C1              4.4221253062        4.5868387188      -15.6854209997  MEMB      100             0.0000000000
     11465       100  SLPC      HA              4.5912078108        5.4634890336      -16.3546172743  MEMB      100             0.0000000000
     11466       100  SLPC      HB              3.4699022105        4.7801224523      -15.1458548286  MEMB      100             0.0000000000
     11467       100  SLPC      C2              5.5664863002        4.5507348767      -14.6197428650  MEMB      100             0.0000000000
     11468       100  SLPC      HS              6.5334376301        4.5072240483      -15.1604296377  MEMB      100             0.0000000000
     11469       100  SLPC      O21             5.4259019949        3.4082870142      -13.7668620033  MEMB      100             0.0000000000
     11470       100  SLPC      C21             6.5270471477        3.0899736785      -13.1079346572  MEMB      100             0.0000000000
     11471       100  SLPC      O22             7.6766643728        3.3349809622      -13.4303327264  MEMB      100             0.0000000000
     11472       100  SLPC      C22             6.1224616716        2.5770819082      -11.7330822427  MEMB      100             0.0000000000
     11473       100  SLPC      H2R             6.8776289560        1.8401541654      -11.3982190449  MEMB      100             0.0000000000
     11474       100  SLPC      H2S             6.1490559872        3.4530947240      -11.0455463705  MEMB      100             0.0000000000
     11475       100  SLPC      C3              5.5627814779        5.8560531032      -13.7814125059  MEMB      100             0.0000000000
     11476       100  SLPC      HX              4.4960750023        6.0847164989      -13.5619811243  MEMB      100             0.0000000000
     11477       100  SLPC      HY              5.9691777731        6.6746646605      -14.4170027030  MEMB      100             0.0000000000
     11478       100  SLPC      O31             6.2190803301        5.7249100221      -12.5097429448  MEMB      100             0.0000000000
     11479       100  SLPC      C31             7.3013647244        6.4384376724      -12.2928635627  MEMB      100             0.0000000000
     11480       100  SLPC      O32             7.8553549043        7.1783483150      -13.0853197050  MEMB      100             0.0000000000
     11481       100  SLPC      C32             7.6851877583        6.2668969198      -10.8222428254  MEMB      100             0.0000000000
     11482       100  SLPC      H2X             8.5295261780        6.9446237666      -10.5861251250  MEMB      100             0.0000000000
     11483       100  SLPC      H2Y             8.0242483691        5.2174924507      -10.6931294341  MEMB      100             0.0000000000
     11484       100  SLPC      C23             4.7027324109        1.9833482196      -11.7208715447  MEMB      100             0.0000000000
     11485       100  SLPC      H3R             4.6421150970        1.1265114319      -12.4233326470  MEMB      100             0.0000000000
     11486       100  SLPC      H3S             3.9629816329        2.7463125921      -12.0665191469  MEMB      100             0.0000000000
     11487       100  SLPC      C24             4.2697253289        1.5441393060      -10.3257227193  MEMB      100             0.0000000000
     11488       100  SLPC      H4R             3.1763840695        1.3823760468      -10.3882198344  MEMB      100             0.0000000000
     11489       100  SLPC      H4S             4.4379881811        2.3636576775       -9.5960095571  MEMB      100             0.0000000000
     11490       100  SLPC      C25             4.8926505529        0.2290639193       -9.8460576940  MEMB      100             0.0000000000
     11491       100  SLPC      H5R             5.4797149204       -0.2428334147      -10.6651189189  MEMB      100             0.0000000000
     11492       100  SLPC      H5S             4.0718675765       -0.4456772350       -9.5539028859  MEMB      100             0.0000000000
     11493       100  SLPC      C26             5.7527144496        0.3489044841       -8.6004818319  MEMB      100             0.0000000000
     11494       100  SLPC      H6R             6.5035487459        1.1205778754       -8.8703648413  MEMB      100             0.0000000000
     11495       100  SLPC      H6S             6.2970322701       -0.6030244126       -8.4052794528  MEMB      100             0.0000000000
     11496       100  SLPC      C27             4.9434679474        0.6905392286       -7.3279828128  MEMB      100             0.0000000000
     11497       100  SLPC      H7R             4.2784678791       -0.1564472466       -7.0651837987  MEMB      100             0.0000000000
     11498       100  SLPC      H7S             4.2761419466        1.5614069404       -7.5221439942  MEMB      100             0.0000000000
     11499       100  SLPC      C28             5.8443933385        1.0015006326       -6.1280173695  MEMB      100             0.0000000000
     11500       100  SLPC      H8R             6.4346809541        0.1113725337       -5.8408417019  MEMB      100             0.0000000000
     11501       100  SLPC      H8S             5.2292150724        1.2809151286       -5.2435346961  MEMB      100             0.0000000000
     11502       100  SLPC      C29             6.7117904612        2.1181247027       -6.6354479462  MEMB      100             0.0000000000
     11503       100  SLPC      H9R             7.5581308776        1.8195599258       -7.2717933424  MEMB      100             0.0000000000
     11504       100  SLPC      C210            6.5898764845        3.3991333064       -6.3042177812  MEMB      100             0.0000000000
     11505       100  SLPC      H10R            7.3114400317        4.1172843527       -6.7125362592  MEMB      100             0.0000000000
     11506       100  SLPC      C211            5.5828107330        3.9597525051       -5.3450181400  MEMB      100             0.0000000000
     11507       100  SLPC      H11R            4.5846229823        3.5062989288       -5.5367389427  MEMB      100             0.0000000000
     11508       100  SLPC      H11S            5.4509420205        5.0498022950       -5.5090399376  MEMB      100             0.0000000000
     11509       100  SLPC      C212            5.9909334981        3.6803156115       -3.9115988491  MEMB      100             0.0000000000
     11510       100  SLPC      H12R            5.1342659915        3.6405262920       -3.2302218057  MEMB      100             0.0000000000
     11511       100  SLPC      C213            7.2193905525        3.5218033056       -3.3610944340  MEMB      100             0.0000000000
     11512       100  SLPC      H13R            7.2671117633        3.4314819201       -2.2685731845  MEMB      100             0.0000000000
     11513       100  SLPC      C214            8.5999828995        3.5770356697       -3.9902434361  MEMB      100             0.0000000000
     11514       100  SLPC      H14R            8.6059727806        3.9524980381       -5.0350284409  MEMB      100             0.0000000000
     11515       100  SLPC      H14S            9.0781029009        2.5712348165       -4.0115184223  MEMB      100             0.0000000000
     11516       100  SLPC      C215            9.4821721928        4.5798334918       -3.2318691905  MEMB      100             0.0000000000
     11517       100  SLPC      H15R           10.3586017910        4.8236699405       -3.8684672552  MEMB      100             0.0000000000
     11518       100  SLPC      H15S            9.8504379130        4.1029347050       -2.2998706803  MEMB      100             0.0000000000
     11519       100  SLPC      C216            8.7346854932        5.8877821276       -2.9254165962  MEMB      100             0.0000000000
     11520       100  SLPC      H16R            7.8774151331        5.6521372888       -2.2646442824  MEMB      100             0.0000000000
     11521       100  SLPC      H16S            8.3224202854        6.2912897012       -3.8625667060  MEMB      100             0.0000000000
     11522       100  SLPC      C217            9.5302646204        6.9685204090       -2.2098641175  MEMB      100             0.0000000000
     11523       100  SLPC      H17R            8.8209027227        7.7693482311       -1.8934775196  MEMB      100             0.0000000000
     11524       100  SLPC      H17S           10.2735842617        7.4235443261       -2.9017935002  MEMB      100             0.0000000000
     11525       100  SLPC      C218           10.2232401055        6.3860907075       -0.9933454242  MEMB      100             0.0000000000
     11526       100  SLPC      H18R            9.5605878601        5.6863707169       -0.4636370681  MEMB      100             0.0000000000
     11527       100  SLPC      H18S           10.5462387723        7.1772485604       -0.2856822966  MEMB      100             0.0000000000
     11528       100  SLPC      H18T           11.0854156766        5.7739991393       -1.3235891732  MEMB      100             0.0000000000
     11529       100  SLPC      C33             6.4849398964        6.5411584152       -9.8812497126  MEMB      100             0.0000000000
     11530       100  SLPC      H3X             5.5651525594        6.0472717384      -10.2743483546  MEMB      100             0.0000000000
     11531       100  SLPC      H3Y             6.2772652341        7.6334058009       -9.8210292367  MEMB      100             0.0000000000
     11532       100  SLPC      C34             6.7079332629        5.9805642389       -8.4760038991  MEMB      100             0.0000000000
     11533       100  SLPC      H4X             6.9078713079        4.8906958491       -8.5732118739  MEMB      100             0.0000000000
     11534       100  SLPC      H4Y             5.7678678373        6.0889747978       -7.8938294842  MEMB      100             0.0000000000
     11535       100  SLPC      C35             7.8662520724        6.6714534931       -7.7474622530  MEMB      100             0.0000000000
     11536       100  SLPC      H5X             8.0215663244        7.6574364250       -8.2322197613  MEMB      100             0.0000000000
     11537       100  SLPC      H5Y             8.7948960628        6.0699296940       -7.8871542190  MEMB      100             0.0000000000
     11538       100  SLPC      C36             7.6556509820        6.9146296927       -6.2432316606  MEMB      100             0.0000000000
     11539       100  SLPC      H6X             8.5604420541        7.4401051868       -5.8555474677  MEMB      100             0.0000000000
     11540       100  SLPC      H6Y             7.5957133485        5.9367476601       -5.7248920925  MEMB      100             0.0000000000
     11541       100  SLPC      C37             6.4222326454        7.7484242994       -5.8601919767  MEMB      100             0.0000000000
     11542       100  SLPC      H7X             5.4812708278        7.2129646531       -6.1051124490  MEMB      100             0.0000000000
     11543       100  SLPC      H7Y             6.4356049484        8.6795256519       -6.4684404023  MEMB      100             0.0000000000
     11544       100  SLPC      C38             6.3943970991        8.1283300635       -4.3690660370  MEMB      100             0.0000000000
     11545       100  SLPC      H8X             5.9140540977        9.1203624589       -4.2668486057  MEMB      100             0.0000000000
     11546       100  SLPC      H8Y             7.4241462323        8.2210307305       -3.9638362815  MEMB      100             0.0000000000
     11547       100  SLPC      C39             5.5203568343        7.2206170193       -3.5040589300  MEMB      100             0.0000000000
     11548       100  SLPC      H9X             6.0082977059        6.2370338644       -3.3634562124  MEMB      100             0.0000000000
     11549       100  SLPC      H9Y             4.5618968147        7.0469793291       -4.0409432928  MEMB      100             0.0000000000
     11550       100  SLPC      C310            5.1935608581        7.8690313634       -2.1530911236  MEMB      100             0.0000000000
     11551       100  SLPC      H10X            5.0849539198        8.9676861422       -2.2663648437  MEMB      100             0.0000000000
     11552       100  SLPC      H10Y            6.0458365583        7.7261088519       -1.4672544511  MEMB      100             0.0000000000
     11553       100  SLPC      C311            3.9145500571        7.3112142429       -1.5235827918  MEMB      100             0.0000000000
     11554       100  SLPC      H11X            4.0296505758        6.2083506203       -1.4658749393  MEMB      100             0.0000000000
     11555       100  SLPC      H11Y            3.0464736173        7.5256683842       -2.1875307212  MEMB      100             0.0000000000
     11556       100  SLPC      C312            3.6501751536        7.8852736557       -0.1233727937  MEMB      100             0.0000000000
     11557       100  SLPC      H12X            3.1172361268        8.8556245469       -0.2341990847  MEMB      100             0.0000000000
     11558       100  SLPC      H12Y            4.6136008970        8.1055875642        0.3826626260  MEMB      100             0.0000000000
     11559       100  SLPC      C313            2.8373342287        6.9648853223        0.7995905897  MEMB      100             0.0000000000
     11560       100  SLPC      H13X            1.9518866153        6.5821197269        0.2634678728  MEMB      100             0.0000000000
     11561       100  SLPC      H13Y            2.4860690240        7.5769843656        1.6634053474  MEMB      100             0.0000000000
     11562       100  SLPC      C314            3.6006682767        5.7780746658        1.3791863165  MEMB      100             0.0000000000
     11563       100  SLPC      H14X            3.6396970916        5.9219502188        2.4838877339  MEMB      100             0.0000000000
     11564       100  SLPC      H14Y            4.6265137386        5.7955434945        0.9628477664  MEMB      100             0.0000000000
     11565       100  SLPC      C315            3.0243545159        4.3813206862        1.1316301849  MEMB      100             0.0000000000
     11566       100  SLPC      H15X            2.1013401026        4.2738969843        1.7461884619  MEMB      100             0.0000000000
     11567       100  SLPC      H15Y            3.7386554481        3.6098329253        1.4967156939  MEMB      100             0.0000000000
     11568       100  SLPC      C316            2.6585587534        4.1058830023       -0.3258664753  MEMB      100             0.0000000000
     11569       100  SLPC      H16X            2.3851227093        5.0270234477       -0.8730556337  MEMB      100             0.0000000000
     11570       100  SLPC      H16Y            1.7548206760        3.4725823544       -0.2899578766  MEMB      100             0.0000000000
     11571       100  SLPC      C317            3.6840858606        3.3502933945       -1.1578163103  MEMB      100             0.0000000000
     11572       100  SLPC      H17X            4.6936815978        3.8102480813       -1.0581146707  MEMB      100             0.0000000000
     11573       100  SLPC      H17Y            3.3658535163        3.4420058770       -2.2238790457  MEMB      100             0.0000000000
     11574       100  SLPC      C318            3.7155177032        1.8708525134       -0.8111570246  MEMB      100             0.0000000000
     11575       100  SLPC      H18X            2.6883678706        1.4563105488       -0.7385623366  MEMB      100             0.0000000000
     11576       100  SLPC      H18Y            4.2027949870        1.7391971100        0.1744582273  MEMB      100             0.0000000000
     11577       100  SLPC      H18Z            4.2667648069        1.3045521128       -1.5911796198  MEMB      100             0.0000000000
     11578       101  SAPS      N              -8.9608065276        5.1083365876      -22.0449364399  MEMB      101             0.0000000000
     11579       101  SAPS      HN1            -8.6422245830        4.7063494710      -22.9497998222  MEMB      101             0.0000000000
     11580       101  SAPS      HN2           -10.0050091273        5.1042204346      -22.0346028528  MEMB      101             0.0000000000
     11581       101  SAPS      HN3            -8.5855989491        6.0567852817      -21.8534766587  MEMB      101             0.0000000000
     11582       101  SAPS      C12            -8.4367835063        4.1508970302      -21.0375110445  MEMB      101             0.0000000000
     11583       101  SAPS      H12A           -9.1873963791        3.9705145031      -20.2779073211  MEMB      101             0.0000000000
     11584       101  SAPS      C13            -8.0768287841        2.8317165183      -21.7516476459  MEMB      101             0.0000000000
     11585       101  SAPS      O13A           -7.7490729022        2.9052567987      -22.9758419317  MEMB      101             0.0000000000
     11586       101  SAPS      O13B           -7.8342454539        1.8363360189      -21.0204549617  MEMB      101             0.0000000000
     11587       101  SAPS      C11            -7.1530027480        4.7603477799      -20.4095019453  MEMB      101             0.0000000000
     11588       101  SAPS      H11A           -6.3144753816        4.6084626289      -21.1254144081  MEMB      101             0.0000000000
     11589       101  SAPS      H11B           -6.8860390550        4.1917851926      -19.4853764662  MEMB      101             0.0000000000
     11590       101  SAPS      P              -8.0773196486        6.7252577836      -18.9106939830  MEMB      101             0.0000000000
     11591       101  SAPS      O13            -7.2142368259        7.7583004591      -18.3062613270  MEMB      101             0.0000000000
     11592       101  SAPS      O14            -9.4405429746        7.0930281310      -19.3767982887  MEMB      101             0.0000000000
     11593       101  SAPS      O12            -7.2946050791        6.1640759090      -20.1710261913  MEMB      101             0.0000000000
     11594       101  SAPS      O11            -8.2074979364        5.4488138283      -17.9605301117  MEMB      101             0.0000000000
     11595       101  SAPS      C1             -9.5208070314        5.0542491308      -17.5104321202  MEMB      101             0.0000000000
     11596       101  SAPS      HA            -10.0301907710        5.9439299328      -17.0605819360  MEMB      101             0.0000000000
     11597       101  SAPS      HB            -10.1509758900        4.7281055613      -18.3639254220  MEMB      101             0.0000000000
     11598       101  SAPS      C2             -9.5480597292        3.9552351058      -16.3606315482  MEMB      101             0.0000000000
     11599       101  SAPS      HS            -10.2571932982        4.3107634842      -15.6028777591  MEMB      101             0.0000000000
     11600       101  SAPS      O21            -8.2451466456        3.8045227487      -15.7829559370  MEMB      101             0.0000000000
     11601       101  SAPS      C21            -7.9446226435        4.9276315800      -15.1171299779  MEMB      101             0.0000000000
     11602       101  SAPS      O22            -8.7285649254        5.8176819230      -14.8396033079  MEMB      101             0.0000000000
     11603       101  SAPS      C22            -6.5111983504        4.8931497260      -14.6307193437  MEMB      101             0.0000000000
     11604       101  SAPS      H2R            -5.9763039240        4.0357874656      -15.0884767758  MEMB      101             0.0000000000
     11605       101  SAPS      H2S            -6.0382852157        5.8365902562      -14.9708580903  MEMB      101             0.0000000000
     11606       101  SAPS      C3            -10.0804796486        2.5660577257      -16.8909652249  MEMB      101             0.0000000000
     11607       101  SAPS      HX             -9.2641257309        2.1757905642      -17.5408099991  MEMB      101             0.0000000000
     11608       101  SAPS      HY            -10.8760190509        2.8017242226      -17.6277950510  MEMB      101             0.0000000000
     11609       101  SAPS      O31           -10.5986269852        1.4778439814      -16.0700561516  MEMB      101             0.0000000000
     11610       101  SAPS      C31           -11.1253648071        0.9137810665      -14.9404748837  MEMB      101             0.0000000000
     11611       101  SAPS      O32           -11.4374283000       -0.2710701891      -14.9620472976  MEMB      101             0.0000000000
     11612       101  SAPS      C32           -11.4635726407        1.6751978275      -13.6173305956  MEMB      101             0.0000000000
     11613       101  SAPS      H2X           -12.0480968467        0.8412240742      -13.1263175266  MEMB      101             0.0000000000
     11614       101  SAPS      H2Y           -12.2168870449        2.4331162853      -13.7818849698  MEMB      101             0.0000000000
     11615       101  SAPS      C23            -6.5477821662        4.7948276956      -13.0921450273  MEMB      101             0.0000000000
     11616       101  SAPS      H3R            -6.1939328748        3.7705984801      -12.8278139951  MEMB      101             0.0000000000
     11617       101  SAPS      H3S            -7.5910166115        4.8799725995      -12.6932383138  MEMB      101             0.0000000000
     11618       101  SAPS      C24            -5.7540286346        5.8806381875      -12.3403880008  MEMB      101             0.0000000000
     11619       101  SAPS      H4R            -4.6836374913        5.8104208979      -12.6357312391  MEMB      101             0.0000000000
     11620       101  SAPS      H4S            -5.8129704769        5.6017452260      -11.2656765760  MEMB      101             0.0000000000
     11621       101  SAPS      C25            -6.2623985582        7.2944079628      -12.5448745798  MEMB      101             0.0000000000
     11622       101  SAPS      H5R            -6.1890369820        7.6600998404      -13.5821451302  MEMB      101             0.0000000000
     11623       101  SAPS      C26            -6.7966693046        8.1388515473      -11.6318083237  MEMB      101             0.0000000000
     11624       101  SAPS      H6R            -7.0125181655        9.1708921381      -11.9585165261  MEMB      101             0.0000000000
     11625       101  SAPS      C27            -7.0429914117        7.9256944064      -10.1559280327  MEMB      101             0.0000000000
     11626       101  SAPS      H7R            -7.8508477490        7.1683346755      -10.0467151498  MEMB      101             0.0000000000
     11627       101  SAPS      H7S            -7.4648686494        8.8696707974       -9.7422106340  MEMB      101             0.0000000000
     11628       101  SAPS      C28            -5.8619046362        7.5093402297       -9.3092081335  MEMB      101             0.0000000000
     11629       101  SAPS      H8R            -4.9992175307        7.0995407231       -9.8581490625  MEMB      101             0.0000000000
     11630       101  SAPS      C29            -5.7820732885        7.6149578791       -7.9701490681  MEMB      101             0.0000000000
     11631       101  SAPS      H9R            -4.8669975841        7.2561115449       -7.4741042067  MEMB      101             0.0000000000
     11632       101  SAPS      C210           -6.8537748900        8.1698053685       -7.0556146460  MEMB      101             0.0000000000
     11633       101  SAPS      H10R           -7.6425217197        7.4045389121       -6.8881685883  MEMB      101             0.0000000000
     11634       101  SAPS      H10S           -7.3726373788        9.0132694485       -7.5617728689  MEMB      101             0.0000000000
     11635       101  SAPS      C211           -6.3954675593        8.6652347574       -5.7080220955  MEMB      101             0.0000000000
     11636       101  SAPS      H11R           -6.6544354990        9.7170549147       -5.5050303274  MEMB      101             0.0000000000
     11637       101  SAPS      C212           -5.7158686800        8.0009242443       -4.7559984512  MEMB      101             0.0000000000
     11638       101  SAPS      H12R           -5.4610806209        8.5651713076       -3.8556056019  MEMB      101             0.0000000000
     11639       101  SAPS      C213           -5.2066751556        6.5798493345       -4.7370176324  MEMB      101             0.0000000000
     11640       101  SAPS      H13R           -5.2575911919        6.0909716413       -5.7309117992  MEMB      101             0.0000000000
     11641       101  SAPS      H13S           -5.8596496464        5.9736501893       -4.0743374962  MEMB      101             0.0000000000
     11642       101  SAPS      C214           -3.7876878721        6.6020312692       -4.2223982115  MEMB      101             0.0000000000
     11643       101  SAPS      H14R           -3.1582449976        7.4347685888       -4.5746452547  MEMB      101             0.0000000000
     11644       101  SAPS      C215           -3.2509494676        5.7337708315       -3.3563452891  MEMB      101             0.0000000000
     11645       101  SAPS      H15R           -2.2357622374        5.9340060644       -2.9905533285  MEMB      101             0.0000000000
     11646       101  SAPS      C216           -3.9373817010        4.5555582787       -2.7198469187  MEMB      101             0.0000000000
     11647       101  SAPS      H16R           -3.2296006362        3.8037374476       -2.3224390641  MEMB      101             0.0000000000
     11648       101  SAPS      H16S           -4.5339063341        4.0077650789       -3.4807692450  MEMB      101             0.0000000000
     11649       101  SAPS      C217           -4.8509123798        5.0121616520       -1.5836173261  MEMB      101             0.0000000000
     11650       101  SAPS      H17R           -5.3798783884        4.1354236159       -1.1709165275  MEMB      101             0.0000000000
     11651       101  SAPS      H17S           -5.6141311937        5.6993790283       -2.0120794645  MEMB      101             0.0000000000
     11652       101  SAPS      C218           -4.2089074696        5.7010578143       -0.3765369512  MEMB      101             0.0000000000
     11653       101  SAPS      H18R           -3.4409425819        6.4375124144       -0.6968362325  MEMB      101             0.0000000000
     11654       101  SAPS      H18S           -3.7147919792        4.9428336838        0.2725282600  MEMB      101             0.0000000000
     11655       101  SAPS      C219           -5.3241392570        6.4250282778        0.3905896432  MEMB      101             0.0000000000
     11656       101  SAPS      H19R           -6.0501656086        5.6809547654        0.7451157663  MEMB      101             0.0000000000
     11657       101  SAPS      H19S           -5.8958856518        7.0440669568       -0.3293083573  MEMB      101             0.0000000000
     11658       101  SAPS      C220           -4.8817149669        7.2829393744        1.5680033740  MEMB      101             0.0000000000
     11659       101  SAPS      H20R           -3.7932732767        7.1882597621        1.6751721085  MEMB      101             0.0000000000
     11660       101  SAPS      H20S           -5.3555338921        6.9381422993        2.5106012678  MEMB      101             0.0000000000
     11661       101  SAPS      H20T           -5.1263180592        8.3557457045        1.4194382829  MEMB      101             0.0000000000
     11662       101  SAPS      C33           -10.6440903017        2.1359369801      -12.3428630251  MEMB      101             0.0000000000
     11663       101  SAPS      H3X           -10.8633289383        1.4165750540      -11.5233420804  MEMB      101             0.0000000000
     11664       101  SAPS      H3Y           -11.1383345595        3.0877861218      -12.0178658616  MEMB      101             0.0000000000
     11665       101  SAPS      C34            -9.1540735456        2.4602633043      -12.2596306515  MEMB      101             0.0000000000
     11666       101  SAPS      H4X            -8.9113398413        3.3376753481      -12.8899904580  MEMB      101             0.0000000000
     11667       101  SAPS      H4Y            -8.5016231090        1.6255404243      -12.5455903387  MEMB      101             0.0000000000
     11668       101  SAPS      C35            -8.8039523780        2.6914177562      -10.7735484075  MEMB      101             0.0000000000
     11669       101  SAPS      H5X            -9.3189735233        1.9112267737      -10.1658517956  MEMB      101             0.0000000000
     11670       101  SAPS      H5Y            -9.2097354166        3.6755417574      -10.4606883371  MEMB      101             0.0000000000
     11671       101  SAPS      C36            -7.3035763490        2.5726217368      -10.4831035837  MEMB      101             0.0000000000
     11672       101  SAPS      H6X            -6.8066168341        3.4614270175      -10.9120951562  MEMB      101             0.0000000000
     11673       101  SAPS      H6Y            -6.9021993926        1.6712188093      -10.9977296066  MEMB      101             0.0000000000
     11674       101  SAPS      C37            -6.9268322634        2.4925500374       -8.9990101352  MEMB      101             0.0000000000
     11675       101  SAPS      H7X            -5.9649832882        1.9305836890       -8.9300371026  MEMB      101             0.0000000000
     11676       101  SAPS      H7Y            -7.6796041475        1.9102922229       -8.4257611576  MEMB      101             0.0000000000
     11677       101  SAPS      C38            -6.6883578054        3.8883109596       -8.4041990393  MEMB      101             0.0000000000
     11678       101  SAPS      H8X            -6.1962742716        4.5147336801       -9.1815471393  MEMB      101             0.0000000000
     11679       101  SAPS      H8Y            -5.9772163568        3.8353984509       -7.5509311589  MEMB      101             0.0000000000
     11680       101  SAPS      C39            -7.9672076751        4.5997165680       -7.9385835194  MEMB      101             0.0000000000
     11681       101  SAPS      H9X            -8.8462037383        4.2604306937       -8.5214012781  MEMB      101             0.0000000000
     11682       101  SAPS      H9Y            -7.8546431652        5.6850574299       -8.1508443297  MEMB      101             0.0000000000
     11683       101  SAPS      C310           -8.2368610742        4.4346105908       -6.4378140322  MEMB      101             0.0000000000
     11684       101  SAPS      H10X           -9.2361201018        4.8641529815       -6.2020814221  MEMB      101             0.0000000000
     11685       101  SAPS      H10Y           -7.4764072343        5.0277183189       -5.8826169580  MEMB      101             0.0000000000
     11686       101  SAPS      C311           -8.1673286990        2.9803626014       -5.9582079248  MEMB      101             0.0000000000
     11687       101  SAPS      H11X           -7.1634549103        2.5512454964       -6.1689443103  MEMB      101             0.0000000000
     11688       101  SAPS      H11Y           -8.8981527414        2.3730198975       -6.5346916792  MEMB      101             0.0000000000
     11689       101  SAPS      C312           -8.4454198024        2.8200521403       -4.4599814511  MEMB      101             0.0000000000
     11690       101  SAPS      H12X           -8.5182952619        1.7230508746       -4.2678484055  MEMB      101             0.0000000000
     11691       101  SAPS      H12Y           -9.4135136894        3.2846407754       -4.1799886341  MEMB      101             0.0000000000
     11692       101  SAPS      C313           -7.3610827894        3.4119208995       -3.5570834183  MEMB      101             0.0000000000
     11693       101  SAPS      H13X           -7.4229988262        4.5184952257       -3.5278540345  MEMB      101             0.0000000000
     11694       101  SAPS      H13Y           -6.3867751857        3.1382510661       -4.0261186749  MEMB      101             0.0000000000
     11695       101  SAPS      C314           -7.4070145800        2.8068794415       -2.1465531559  MEMB      101             0.0000000000
     11696       101  SAPS      H14X           -6.3685026670        2.5923177587       -1.8171164576  MEMB      101             0.0000000000
     11697       101  SAPS      H14Y           -7.9325178134        1.8270377486       -2.2059763649  MEMB      101             0.0000000000
     11698       101  SAPS      C315           -8.0672593415        3.6153005459       -1.0359810860  MEMB      101             0.0000000000
     11699       101  SAPS      H15X           -9.1113970507        3.8179377796       -1.3580898096  MEMB      101             0.0000000000
     11700       101  SAPS      H15Y           -7.5683666123        4.5920143955       -0.8780583476  MEMB      101             0.0000000000
     11701       101  SAPS      C316           -8.1037797898        2.7916138226        0.2615690994  MEMB      101             0.0000000000
     11702       101  SAPS      H16X           -8.0478392028        1.7116356803        0.0259822670  MEMB      101             0.0000000000
     11703       101  SAPS      H16Y           -9.0875209094        2.9384452360        0.7321777742  MEMB      101             0.0000000000
     11704       101  SAPS      C317           -7.0841068725        3.1272456618        1.3508455858  MEMB      101             0.0000000000
     11705       101  SAPS      H17X           -7.0084761741        4.2225593762        1.4593553687  MEMB      101             0.0000000000
     11706       101  SAPS      H17Y           -6.0760342213        2.7247251910        1.1067160533  MEMB      101             0.0000000000
     11707       101  SAPS      C318           -7.5847148711        2.6069956413        2.6940918856  MEMB      101             0.0000000000
     11708       101  SAPS      H18X           -8.1157227120        1.6414591523        2.5431950123  MEMB      101             0.0000000000
     11709       101  SAPS      H18Y           -8.3163941657        3.3380474757        3.1073909371  MEMB      101             0.0000000000
     11710       101  SAPS      H18Z           -6.7560040818        2.4647628739        3.4187888083  MEMB      101             0.0000000000
     11711       102  OSM       N              -1.1160630383      -11.9969259609      -21.0795742941  MEMB      102             0.0000000000
     11712       102  OSM       C15            -2.1677854453      -12.9820066996      -21.5111301673  MEMB      102             0.0000000000
     11713       102  OSM       H15A           -1.6866527638      -13.9343766896      -21.7312170349  MEMB      102             0.0000000000
     11714       102  OSM       H15B           -2.6899213699      -12.6856097322      -22.4127794355  MEMB      102             0.0000000000
     11715       102  OSM       H15C           -2.9196753035      -13.1370852302      -20.7440028415  MEMB      102             0.0000000000
     11716       102  OSM       C14            -0.2506089521      -12.6917728368      -20.0754569743  MEMB      102             0.0000000000
     11717       102  OSM       H14A            0.1332546385      -13.6211058166      -20.5093080609  MEMB      102             0.0000000000
     11718       102  OSM       H14B           -0.7905058925      -12.9637378168      -19.1773285437  MEMB      102             0.0000000000
     11719       102  OSM       H14C            0.6137954724      -12.0827091312      -19.8164972325  MEMB      102             0.0000000000
     11720       102  OSM       C13            -0.2834050880      -11.7049429466      -22.2793012270  MEMB      102             0.0000000000
     11721       102  OSM       H13A            0.1323400815      -12.6181302090      -22.6708429667  MEMB      102             0.0000000000
     11722       102  OSM       H13B            0.4985673177      -10.9930164240      -22.0354280084  MEMB      102             0.0000000000
     11723       102  OSM       H13C           -0.8790367999      -11.2337274078      -23.0491163288  MEMB      102             0.0000000000
     11724       102  OSM       C12            -1.7037286543      -10.6842950041      -20.5640362576  MEMB      102             0.0000000000
     11725       102  OSM       H12A           -2.2247017920      -10.8721384664      -19.6339104812  MEMB      102             0.0000000000
     11726       102  OSM       H12B           -2.4399749747      -10.3463564976      -21.2821745588  MEMB      102             0.0000000000
     11727       102  OSM       C11            -0.7753802450       -9.4390942406      -20.3891605106  MEMB      102             0.0000000000
     11728       102  OSM       H11A            0.0962196672       -9.7376668526      -19.7658900338  MEMB      102             0.0000000000
     11729       102  OSM       H11B           -1.3365065930       -8.6648780073      -19.8133038272  MEMB      102             0.0000000000
     11730       102  OSM       P               0.9281829397       -8.0080775599      -21.8362080598  MEMB      102             0.0000000000
     11731       102  OSM       O13             1.5277827039       -8.2363476983      -23.1752072184  MEMB      102             0.0000000000
     11732       102  OSM       O14             0.7264183596       -6.5906100402      -21.4555648388  MEMB      102             0.0000000000
     11733       102  OSM       O11             1.9236793140       -8.7394874100      -20.8225385803  MEMB      102             0.0000000000
     11734       102  OSM       O12            -0.4081687275       -8.8712134785      -21.6534460109  MEMB      102             0.0000000000
     11735       102  OSM       C1S             2.6985802657       -8.0053123459      -19.8854101055  MEMB      102             0.0000000000
     11736       102  OSM       H1S             2.2937320839       -6.9803236909      -19.7012547184  MEMB      102             0.0000000000
     11737       102  OSM       H1T             3.7428816836       -7.8929315171      -20.2472399058  MEMB      102             0.0000000000
     11738       102  OSM       NF              3.5722329362       -8.0973601711      -17.5875934526  MEMB      102             0.0000000000
     11739       102  OSM       HNF             4.3982535840       -8.5872202331      -17.3067745163  MEMB      102             0.0000000000
     11740       102  OSM       C2S             2.7034551516       -8.7604933413      -18.5364533291  MEMB      102             0.0000000000
     11741       102  OSM       H2S             1.6559334093       -8.7320944570      -18.1525085425  MEMB      102             0.0000000000
     11742       102  OSM       C3S             3.1318439484      -10.2482417211      -18.6915840630  MEMB      102             0.0000000000
     11743       102  OSM       H3S             4.1905836029      -10.2794940059      -19.0256990761  MEMB      102             0.0000000000
     11744       102  OSM       O3              2.4228131385      -10.9979255646      -19.6727876850  MEMB      102             0.0000000000
     11745       102  OSM       HO3             2.0525497933      -10.2956992424      -20.2339760969  MEMB      102             0.0000000000
     11746       102  OSM       C4S             2.9620817178      -10.9128495647      -17.3495342923  MEMB      102             0.0000000000
     11747       102  OSM       H4S             1.9672307996      -11.3367621196      -17.1555396281  MEMB      102             0.0000000000
     11748       102  OSM       C5S             3.9233848299      -10.9984276197      -16.4084532302  MEMB      102             0.0000000000
     11749       102  OSM       H5S             4.9156400961      -10.5603821766      -16.6180233325  MEMB      102             0.0000000000
     11750       102  OSM       C6S             3.8108381709      -11.6440231189      -15.0521092565  MEMB      102             0.0000000000
     11751       102  OSM       H6S             4.7807481671      -12.1416996578      -14.8312963019  MEMB      102             0.0000000000
     11752       102  OSM       H6T             3.0327025697      -12.4398925596      -15.0358084874  MEMB      102             0.0000000000
     11753       102  OSM       C7S             3.5144833913      -10.6454735458      -13.9055459513  MEMB      102             0.0000000000
     11754       102  OSM       H7S             2.4247508543      -10.4245857891      -13.9029856229  MEMB      102             0.0000000000
     11755       102  OSM       H7T             4.0419345465       -9.6792112647      -14.0811895255  MEMB      102             0.0000000000
     11756       102  OSM       C8S             3.9525298985      -11.1781406784      -12.5245822731  MEMB      102             0.0000000000
     11757       102  OSM       H8S             4.9628186111      -10.7594261189      -12.3075194180  MEMB      102             0.0000000000
     11758       102  OSM       H8T             4.0556362741      -12.2847918607      -12.5717191214  MEMB      102             0.0000000000
     11759       102  OSM       C9S             3.0035406172      -10.8449572652      -11.3612900414  MEMB      102             0.0000000000
     11760       102  OSM       H9S             2.6090357775       -9.8164208878      -11.4827362592  MEMB      102             0.0000000000
     11761       102  OSM       H9T             3.5887180905      -10.8749550473      -10.4140407521  MEMB      102             0.0000000000
     11762       102  OSM       C10S            1.8444716868      -11.8499580979      -11.2535796376  MEMB      102             0.0000000000
     11763       102  OSM       H10S            2.2705540611      -12.8640869739      -11.0891386262  MEMB      102             0.0000000000
     11764       102  OSM       H10T            1.3083062443      -11.8605722009      -12.2292828364  MEMB      102             0.0000000000
     11765       102  OSM       C11S            0.8224664611      -11.5626557944      -10.1401681828  MEMB      102             0.0000000000
     11766       102  OSM       H11S            0.0002499844      -12.3105419050      -10.2112051197  MEMB      102             0.0000000000
     11767       102  OSM       H11T            0.3700364533      -10.5629784295      -10.3163404677  MEMB      102             0.0000000000
     11768       102  OSM       C12S            1.3861791191      -11.6160145802       -8.7099624684  MEMB      102             0.0000000000
     11769       102  OSM       H12S            2.2520729208      -10.9251955469       -8.6256471972  MEMB      102             0.0000000000
     11770       102  OSM       H12T            1.7571741327      -12.6368230985       -8.4799730299  MEMB      102             0.0000000000
     11771       102  OSM       C13S            0.3260119188      -11.1986726327       -7.6798744009  MEMB      102             0.0000000000
     11772       102  OSM       H13S           -0.5176988345      -11.9214480266       -7.6798820035  MEMB      102             0.0000000000
     11773       102  OSM       H13T           -0.0887801362      -10.2147427128       -8.0032649900  MEMB      102             0.0000000000
     11774       102  OSM       C14S            0.8715481563      -11.0303171354       -6.2541900405  MEMB      102             0.0000000000
     11775       102  OSM       H14S            0.1828737142      -10.3398343975       -5.7185695909  MEMB      102             0.0000000000
     11776       102  OSM       H14T            1.8715084502      -10.5459508137       -6.2723717425  MEMB      102             0.0000000000
     11777       102  OSM       C15S            0.9595547192      -12.3442280706       -5.4721379756  MEMB      102             0.0000000000
     11778       102  OSM       H15S            1.7352768354      -12.9877558550       -5.9372681428  MEMB      102             0.0000000000
     11779       102  OSM       H15T           -0.0120394726      -12.8814575257       -5.5502890975  MEMB      102             0.0000000000
     11780       102  OSM       C16S            1.2795371464      -12.1368013761       -3.9845470123  MEMB      102             0.0000000000
     11781       102  OSM       H16S            2.1853317596      -11.4974461680       -3.8769481836  MEMB      102             0.0000000000
     11782       102  OSM       H16T            1.5075851682      -13.1249601547       -3.5256485445  MEMB      102             0.0000000000
     11783       102  OSM       C17S            0.1049216464      -11.5038071532       -3.2283605779  MEMB      102             0.0000000000
     11784       102  OSM       H17S           -0.8209181568      -12.0866658758       -3.4310327048  MEMB      102             0.0000000000
     11785       102  OSM       H17T           -0.0494572798      -10.4787362706       -3.6229413832  MEMB      102             0.0000000000
     11786       102  OSM       C18S            0.3252201697      -11.3956942445       -1.7251435467  MEMB      102             0.0000000000
     11787       102  OSM       H18S           -0.5714031316      -10.9878174557       -1.2126044910  MEMB      102             0.0000000000
     11788       102  OSM       H18T            1.1613902857      -10.6882419373       -1.5513409566  MEMB      102             0.0000000000
     11789       102  OSM       H18U            0.5723127757      -12.3860902014       -1.2845485073  MEMB      102             0.0000000000
     11790       102  OSM       C1F             3.3190410640       -6.9183626271      -17.0455759422  MEMB      102             0.0000000000
     11791       102  OSM       OF              2.3930277482       -6.2111046365      -17.4104230688  MEMB      102             0.0000000000
     11792       102  OSM       C2F             4.2753369609       -6.5229117344      -15.9823968699  MEMB      102             0.0000000000
     11793       102  OSM       H2F             4.7094839008       -5.5352961155      -16.2397407758  MEMB      102             0.0000000000
     11794       102  OSM       H2G             5.0999583795       -7.2702667975      -15.9421292577  MEMB      102             0.0000000000
     11795       102  OSM       C3F             3.5586672472       -6.4748996034      -14.6233143994  MEMB      102             0.0000000000
     11796       102  OSM       H3F             3.0023272331       -7.4222749166      -14.4432783225  MEMB      102             0.0000000000
     11797       102  OSM       H3G             2.8120627709       -5.6464400771      -14.6442895612  MEMB      102             0.0000000000
     11798       102  OSM       C4F             4.5466389376       -6.2508328922      -13.4718366112  MEMB      102             0.0000000000
     11799       102  OSM       H4F             5.1944906559       -5.3864756026      -13.7472382734  MEMB      102             0.0000000000
     11800       102  OSM       H4G             5.2028466933       -7.1414880727      -13.3543614286  MEMB      102             0.0000000000
     11801       102  OSM       C5F             3.8334324493       -5.9268332676      -12.1579252662  MEMB      102             0.0000000000
     11802       102  OSM       H5F             3.0635187898       -5.1651495696      -12.3903927983  MEMB      102             0.0000000000
     11803       102  OSM       H5G             4.5379032230       -5.4764190786      -11.4234612062  MEMB      102             0.0000000000
     11804       102  OSM       C6F             3.0793682045       -7.0917014675      -11.5130687751  MEMB      102             0.0000000000
     11805       102  OSM       H6F             3.7575255333       -7.5832068845      -10.7821349912  MEMB      102             0.0000000000
     11806       102  OSM       H6G             2.8084099267       -7.8410679867      -12.2875845998  MEMB      102             0.0000000000
     11807       102  OSM       C7F             1.7736226048       -6.6160608538      -10.8448592437  MEMB      102             0.0000000000
     11808       102  OSM       H7F             1.1001249655       -6.2168993509      -11.6376656718  MEMB      102             0.0000000000
     11809       102  OSM       H7G             1.9999595482       -5.7780428524      -10.1491086758  MEMB      102             0.0000000000
     11810       102  OSM       C8F             1.0221298878       -7.7145435929      -10.0813664848  MEMB      102             0.0000000000
     11811       102  OSM       H8F             0.7642617941       -8.5256146928      -10.7966663740  MEMB      102             0.0000000000
     11812       102  OSM       H8G             0.0592714912       -7.3066064015       -9.7032871694  MEMB      102             0.0000000000
     11813       102  OSM       C9F             1.9020902197       -8.2334586356       -8.9747378436  MEMB      102             0.0000000000
     11814       102  OSM       H9F             2.7371073320       -8.8617548801       -9.3203124559  MEMB      102             0.0000000000
     11815       102  OSM       C10F            1.7209453125       -8.1004004673       -7.6526922886  MEMB      102             0.0000000000
     11816       102  OSM       H10F            2.4371902924       -8.5926861057       -6.9768398188  MEMB      102             0.0000000000
     11817       102  OSM       C11F            0.5831074181       -7.3996393432       -6.9616555867  MEMB      102             0.0000000000
     11818       102  OSM       H11F           -0.0126085469       -8.1751388945       -6.4360264530  MEMB      102             0.0000000000
     11819       102  OSM       H11G           -0.1070959305       -6.8895224416       -7.6666269581  MEMB      102             0.0000000000
     11820       102  OSM       C12F            1.0331867774       -6.3646905716       -5.9242766855  MEMB      102             0.0000000000
     11821       102  OSM       H12F            1.6145631718       -5.5611304827       -6.4309830783  MEMB      102             0.0000000000
     11822       102  OSM       H12G            1.7172804197       -6.8443678714       -5.1866319629  MEMB      102             0.0000000000
     11823       102  OSM       C13F           -0.1504391238       -5.7280039276       -5.1750843758  MEMB      102             0.0000000000
     11824       102  OSM       H13F           -0.7040334463       -5.0509118968       -5.8626880556  MEMB      102             0.0000000000
     11825       102  OSM       H13G            0.2439117416       -5.0627065176       -4.3840535253  MEMB      102             0.0000000000
     11826       102  OSM       C14F           -1.1739586258       -6.7159322323       -4.5810921592  MEMB      102             0.0000000000
     11827       102  OSM       H14F           -1.7572449697       -7.1219127206       -5.4404419449  MEMB      102             0.0000000000
     11828       102  OSM       H14G           -1.8744898008       -6.1409047050       -3.9440849885  MEMB      102             0.0000000000
     11829       102  OSM       C15F           -0.6380624465       -7.9210182060       -3.7783738050  MEMB      102             0.0000000000
     11830       102  OSM       H15F            0.3411965311       -8.2577054626       -4.1757309119  MEMB      102             0.0000000000
     11831       102  OSM       H15G           -1.3591575531       -8.7571213854       -3.9415879662  MEMB      102             0.0000000000
     11832       102  OSM       C16F           -0.5176145088       -7.6922985244       -2.2605805792  MEMB      102             0.0000000000
     11833       102  OSM       H16F           -0.3207684799       -8.6600077059       -1.7475708833  MEMB      102             0.0000000000
     11834       102  OSM       H16G           -1.4950903072       -7.3202729367       -1.8830014015  MEMB      102             0.0000000000
     11835       102  OSM       C17F            0.6155904851       -6.7156766825       -1.9253169134  MEMB      102             0.0000000000
     11836       102  OSM       H17F            0.6901835109       -5.9975956637       -2.7580949942  MEMB      102             0.0000000000
     11837       102  OSM       H17G            1.5938880463       -7.2446159484       -1.9131849705  MEMB      102             0.0000000000
     11838       102  OSM       C18F            0.4241953320       -5.8623956312       -0.6734833125  MEMB      102             0.0000000000
     11839       102  OSM       H18F            0.8086506956       -6.3516996747        0.2324219150  MEMB      102             0.0000000000
     11840       102  OSM       H18G           -0.6357620496       -5.6581518277       -0.4599818961  MEMB      102             0.0000000000
     11841       102  OSM       H18H            0.9221019624       -4.8810522647       -0.8309062860  MEMB      102             0.0000000000
     11842       103  SAPE      N               3.8528985303        8.0518832840      -19.8736769064  MEMB      103             0.0000000000
     11843       103  SAPE      HN1             3.7790336584        7.0106629325      -19.7543362054  MEMB      103             0.0000000000
     11844       103  SAPE      HN2             4.7106322236        8.3205968896      -20.4113048464  MEMB      103             0.0000000000
     11845       103  SAPE      HN3             3.8571597429        8.5925502176      -18.9818125531  MEMB      103             0.0000000000
     11846       103  SAPE      C12             2.6625847252        8.4818872536      -20.6795948703  MEMB      103             0.0000000000
     11847       103  SAPE      H12A            1.8232205720        7.7947375119      -20.4394623516  MEMB      103             0.0000000000
     11848       103  SAPE      H12B            2.9401366507        8.3585569883      -21.7451321171  MEMB      103             0.0000000000
     11849       103  SAPE      C11             2.2697132208        9.9346553869      -20.3727809191  MEMB      103             0.0000000000
     11850       103  SAPE      H11A            1.7088273118        9.9691719110      -19.4086267121  MEMB      103             0.0000000000
     11851       103  SAPE      H11B            1.5591866318       10.2449953917      -21.1859447450  MEMB      103             0.0000000000
     11852       103  SAPE      P               3.0878595632       12.3607697608      -20.1816977132  MEMB      103             0.0000000000
     11853       103  SAPE      O13             4.0930574792       13.1580723476      -20.9188086445  MEMB      103             0.0000000000
     11854       103  SAPE      O14             1.6614848389       12.5528464401      -20.5019031115  MEMB      103             0.0000000000
     11855       103  SAPE      O12             3.4227681857       10.7964316953      -20.3032245080  MEMB      103             0.0000000000
     11856       103  SAPE      O11             3.2024363546       12.6202591024      -18.6239409595  MEMB      103             0.0000000000
     11857       103  SAPE      C1              3.7182142387       13.8467703373      -18.0962781520  MEMB      103             0.0000000000
     11858       103  SAPE      HA              4.7748524513       14.0015814384      -18.4288359939  MEMB      103             0.0000000000
     11859       103  SAPE      HB              3.1404660639       14.7261628171      -18.4579657780  MEMB      103             0.0000000000
     11860       103  SAPE      C2              3.7225485675       13.8117979028      -16.5287924216  MEMB      103             0.0000000000
     11861       103  SAPE      HS              4.4237622332       14.5976711235      -16.1660445556  MEMB      103             0.0000000000
     11862       103  SAPE      O21             4.0854888583       12.5330880086      -15.9828907657  MEMB      103             0.0000000000
     11863       103  SAPE      C21             4.9966525771       11.8309331045      -16.6226040136  MEMB      103             0.0000000000
     11864       103  SAPE      O22             5.9058447048       12.2591201214      -17.3060922179  MEMB      103             0.0000000000
     11865       103  SAPE      C22             4.8591462527       10.3273870014      -16.3583330101  MEMB      103             0.0000000000
     11866       103  SAPE      H2R             4.9361776227        9.8204897670      -17.3404929027  MEMB      103             0.0000000000
     11867       103  SAPE      H2S             5.7742619480       10.0826848813      -15.7808184882  MEMB      103             0.0000000000
     11868       103  SAPE      C3              2.3154340758       14.1467421412      -15.9520377970  MEMB      103             0.0000000000
     11869       103  SAPE      HX              1.6308639786       13.2832112443      -16.1214628881  MEMB      103             0.0000000000
     11870       103  SAPE      HY              1.9144848106       15.0021120521      -16.5384229744  MEMB      103             0.0000000000
     11871       103  SAPE      O31             2.3614235560       14.5572225985      -14.5687722645  MEMB      103             0.0000000000
     11872       103  SAPE      C31             2.3871920204       13.6063280468      -13.6381734276  MEMB      103             0.0000000000
     11873       103  SAPE      O32             2.2828885440       12.4121866405      -13.8015695789  MEMB      103             0.0000000000
     11874       103  SAPE      C32             2.4912229453       14.2752426550      -12.2715800811  MEMB      103             0.0000000000
     11875       103  SAPE      H2X             1.9644861773       13.6365556609      -11.5343777066  MEMB      103             0.0000000000
     11876       103  SAPE      H2Y             1.9900614626       15.2618429981      -12.3246746806  MEMB      103             0.0000000000
     11877       103  SAPE      C23             3.5929004330        9.8527601063      -15.6089385701  MEMB      103             0.0000000000
     11878       103  SAPE      H3R             2.7917730074        9.6260085275      -16.3469403629  MEMB      103             0.0000000000
     11879       103  SAPE      H3S             3.1936246906       10.6397855931      -14.9387115987  MEMB      103             0.0000000000
     11880       103  SAPE      C24             3.8863663153        8.6295923740      -14.7249412875  MEMB      103             0.0000000000
     11881       103  SAPE      H4R             4.3603008068        7.8754647895      -15.3910954683  MEMB      103             0.0000000000
     11882       103  SAPE      H4S             2.9217633649        8.1968290960      -14.3775034056  MEMB      103             0.0000000000
     11883       103  SAPE      C25             4.8023057414        8.9576431265      -13.5601637192  MEMB      103             0.0000000000
     11884       103  SAPE      H5R             5.8172555472        9.2759191205      -13.8419771990  MEMB      103             0.0000000000
     11885       103  SAPE      C26             4.5333473353        8.8535055202      -12.2449195269  MEMB      103             0.0000000000
     11886       103  SAPE      H6R             5.3253661474        9.1262990159      -11.5269271626  MEMB      103             0.0000000000
     11887       103  SAPE      C27             3.2378208356        8.3804193470      -11.6277302720  MEMB      103             0.0000000000
     11888       103  SAPE      H7R             2.9080209779        7.4358820806      -12.1134138242  MEMB      103             0.0000000000
     11889       103  SAPE      H7S             2.4427082895        9.1240522213      -11.8604086929  MEMB      103             0.0000000000
     11890       103  SAPE      C28             3.2918014161        8.1623082972      -10.1312263800  MEMB      103             0.0000000000
     11891       103  SAPE      H8R             3.2607883754        7.1060551093       -9.8157952477  MEMB      103             0.0000000000
     11892       103  SAPE      C29             3.4255259189        9.1161316219       -9.1857764397  MEMB      103             0.0000000000
     11893       103  SAPE      H9R             3.4569031480        8.8025778492       -8.1318464558  MEMB      103             0.0000000000
     11894       103  SAPE      C210            3.5510128941       10.6080534334       -9.4330037501  MEMB      103             0.0000000000
     11895       103  SAPE      H10R            3.2592112420       10.8275465150      -10.4855999892  MEMB      103             0.0000000000
     11896       103  SAPE      H10S            4.6253000294       10.8801890195       -9.3801787371  MEMB      103             0.0000000000
     11897       103  SAPE      C211            2.7798930515       11.5755040380       -8.5596137142  MEMB      103             0.0000000000
     11898       103  SAPE      H11R            2.2733503577       12.3664181524       -9.1348020979  MEMB      103             0.0000000000
     11899       103  SAPE      C212            2.6873956615       11.6400075910       -7.2152840260  MEMB      103             0.0000000000
     11900       103  SAPE      H12R            2.0373545501       12.4114924304       -6.7784567260  MEMB      103             0.0000000000
     11901       103  SAPE      C213            3.3438586168       10.7485140266       -6.1952693453  MEMB      103             0.0000000000
     11902       103  SAPE      H13R            3.8582167509       11.3943265176       -5.4483737747  MEMB      103             0.0000000000
     11903       103  SAPE      H13S            4.1558574005       10.1576101601       -6.6668057047  MEMB      103             0.0000000000
     11904       103  SAPE      C214            2.3965190423        9.7850466586       -5.5232266968  MEMB      103             0.0000000000
     11905       103  SAPE      H14R            1.8876662201        9.0878979420       -6.2049964703  MEMB      103             0.0000000000
     11906       103  SAPE      C215            2.0448271045        9.7954406001       -4.2236349441  MEMB      103             0.0000000000
     11907       103  SAPE      H15R            1.3308138627        9.0489177069       -3.8432088503  MEMB      103             0.0000000000
     11908       103  SAPE      C216            2.5365665448       10.7897815545       -3.2073188150  MEMB      103             0.0000000000
     11909       103  SAPE      H16R            2.5692207013       11.8102472970       -3.6585443439  MEMB      103             0.0000000000
     11910       103  SAPE      H16S            3.5709370748       10.5539466416       -2.8673619988  MEMB      103             0.0000000000
     11911       103  SAPE      C217            1.5810467215       10.8760296475       -2.0033849526  MEMB      103             0.0000000000
     11912       103  SAPE      H17R            1.6341015227        9.9411419345       -1.4030977423  MEMB      103             0.0000000000
     11913       103  SAPE      H17S            0.5300200254       10.9822908249       -2.3426578160  MEMB      103             0.0000000000
     11914       103  SAPE      C218            1.9264881200       12.0790819483       -1.1229468973  MEMB      103             0.0000000000
     11915       103  SAPE      H18R            2.9665337630       12.3882083805       -1.3758049702  MEMB      103             0.0000000000
     11916       103  SAPE      H18S            1.8940002715       11.7892497172       -0.0512710616  MEMB      103             0.0000000000
     11917       103  SAPE      C219            1.0263417792       13.2980319035       -1.3141654243  MEMB      103             0.0000000000
     11918       103  SAPE      H19R            0.0538960752       13.1294397934       -0.8017391797  MEMB      103             0.0000000000
     11919       103  SAPE      H19S            0.8139247527       13.4038896661       -2.3966988474  MEMB      103             0.0000000000
     11920       103  SAPE      C220            1.6876809445       14.5749896631       -0.7910513720  MEMB      103             0.0000000000
     11921       103  SAPE      H20R            2.6202959073       14.7799838171       -1.3615053585  MEMB      103             0.0000000000
     11922       103  SAPE      H20S            1.9610950132       14.4497674415        0.2780160777  MEMB      103             0.0000000000
     11923       103  SAPE      H20T            1.0180219626       15.4551469316       -0.8867445725  MEMB      103             0.0000000000
     11924       103  SAPE      C33             3.9522799106       14.4504965469      -11.8380371910  MEMB      103             0.0000000000
     11925       103  SAPE      H3X             4.5179664492       14.9980123369      -12.6293906229  MEMB      103             0.0000000000
     11926       103  SAPE      H3Y             4.4260778489       13.4524040914      -11.6923860437  MEMB      103             0.0000000000
     11927       103  SAPE      C34             4.0833224865       15.2514424664      -10.5452469679  MEMB      103             0.0000000000
     11928       103  SAPE      H4X             3.6295776751       14.7072809073       -9.6887029337  MEMB      103             0.0000000000
     11929       103  SAPE      H4Y             3.5414408304       16.2235367811      -10.6508525495  MEMB      103             0.0000000000
     11930       103  SAPE      C35             5.5485920172       15.5625583573      -10.2459558376  MEMB      103             0.0000000000
     11931       103  SAPE      H5X             5.5922026569       16.0627329853       -9.2596853042  MEMB      103             0.0000000000
     11932       103  SAPE      H5Y             5.9436280694       16.1947355484      -11.0628374666  MEMB      103             0.0000000000
     11933       103  SAPE      C36             6.5337678840       14.4129731677      -10.1703061997  MEMB      103             0.0000000000
     11934       103  SAPE      H6X             7.5647689288       14.8440352835      -10.1260801179  MEMB      103             0.0000000000
     11935       103  SAPE      H6Y             6.4829663138       13.7686442190      -11.0714186769  MEMB      103             0.0000000000
     11936       103  SAPE      C37             6.3004978134       13.6309539081       -8.8958450247  MEMB      103             0.0000000000
     11937       103  SAPE      H7X             5.2581654607       13.2433628423       -8.8782450093  MEMB      103             0.0000000000
     11938       103  SAPE      H7Y             6.4234646000       14.3214496137       -8.0285835560  MEMB      103             0.0000000000
     11939       103  SAPE      C38             7.2842619947       12.4795744935       -8.8011659735  MEMB      103             0.0000000000
     11940       103  SAPE      H8X             8.3133531036       12.8938304942       -8.6916304813  MEMB      103             0.0000000000
     11941       103  SAPE      H8Y             7.2319903555       11.8883869001       -9.7431051122  MEMB      103             0.0000000000
     11942       103  SAPE      C39             6.9758436176       11.5635021841       -7.6342906186  MEMB      103             0.0000000000
     11943       103  SAPE      H9X             7.6927418584       10.7192775961       -7.6030626322  MEMB      103             0.0000000000
     11944       103  SAPE      H9Y             5.9648210615       11.1232312085       -7.7739818697  MEMB      103             0.0000000000
     11945       103  SAPE      C310            7.0286516896       12.2912216506       -6.2991806377  MEMB      103             0.0000000000
     11946       103  SAPE      H10X            6.2497951561       13.0867671825       -6.2683511890  MEMB      103             0.0000000000
     11947       103  SAPE      H10Y            8.0204879957       12.7683769069       -6.1471169430  MEMB      103             0.0000000000
     11948       103  SAPE      C311            6.7434974735       11.2850312119       -5.2049563598  MEMB      103             0.0000000000
     11949       103  SAPE      H11X            7.6035432141       10.5938950041       -5.0695142864  MEMB      103             0.0000000000
     11950       103  SAPE      H11Y            5.8842650161       10.6763867952       -5.5560160993  MEMB      103             0.0000000000
     11951       103  SAPE      C312            6.3458012740       11.9370432639       -3.8972048755  MEMB      103             0.0000000000
     11952       103  SAPE      H12X            5.9089048559       11.1613746614       -3.2269328481  MEMB      103             0.0000000000
     11953       103  SAPE      H12Y            5.5542941123       12.6966749860       -4.0935065160  MEMB      103             0.0000000000
     11954       103  SAPE      C313            7.5374414993       12.5820944628       -3.1957081396  MEMB      103             0.0000000000
     11955       103  SAPE      H13X            7.8363204894       13.5080782505       -3.7361958565  MEMB      103             0.0000000000
     11956       103  SAPE      H13Y            8.4002038846       11.8772781019       -3.2167830317  MEMB      103             0.0000000000
     11957       103  SAPE      C314            7.1947726241       12.8942966949       -1.7424987866  MEMB      103             0.0000000000
     11958       103  SAPE      H14X            7.9935384740       13.5284530706       -1.2973768159  MEMB      103             0.0000000000
     11959       103  SAPE      H14Y            7.1755254238       11.9257086551       -1.1935322566  MEMB      103             0.0000000000
     11960       103  SAPE      C315            5.8277336305       13.5752807805       -1.5797618311  MEMB      103             0.0000000000
     11961       103  SAPE      H15X            5.0039649804       12.9166125819       -1.9270715546  MEMB      103             0.0000000000
     11962       103  SAPE      H15Y            5.8137261588       14.4942494587       -2.2129821651  MEMB      103             0.0000000000
     11963       103  SAPE      C316            5.5602323367       13.9828669740       -0.1323006376  MEMB      103             0.0000000000
     11964       103  SAPE      H16X            4.5954296539       14.5302191565       -0.0598989720  MEMB      103             0.0000000000
     11965       103  SAPE      H16Y            6.3824170592       14.6950173239        0.1067725150  MEMB      103             0.0000000000
     11966       103  SAPE      C317            5.5899350024       12.8583717180        0.9211050624  MEMB      103             0.0000000000
     11967       103  SAPE      H17X            5.8685180752       13.3279643633        1.8925737131  MEMB      103             0.0000000000
     11968       103  SAPE      H17Y            6.3853709785       12.1241996984        0.6980640075  MEMB      103             0.0000000000
     11969       103  SAPE      C318            4.2650089691       12.1233848991        1.1248161663  MEMB      103             0.0000000000
     11970       103  SAPE      H18X            4.0543643802       11.4502483973        0.2708082175  MEMB      103             0.0000000000
     11971       103  SAPE      H18Y            3.4335072838       12.8483644797        1.2333189448  MEMB      103             0.0000000000
     11972       103  SAPE      H18Z            4.2733157124       11.5144853655        2.0465605947  MEMB      103             0.0000000000
     11973       104  OSM       N               9.8980903615       -2.4472209308      -20.9278806773  MEMB      104             0.0000000000
     11974       104  OSM       C15            10.2703947745       -2.3198067590      -22.3803042277  MEMB      104             0.0000000000
     11975       104  OSM       H15A            9.4460310364       -1.9962821580      -22.9915768790  MEMB      104             0.0000000000
     11976       104  OSM       H15B           10.6861120906       -3.2437488200      -22.7717375708  MEMB      104             0.0000000000
     11977       104  OSM       H15C           11.0801428524       -1.5890562092      -22.4697989532  MEMB      104             0.0000000000
     11978       104  OSM       C14             9.3198208341       -1.1186368282      -20.5441620046  MEMB      104             0.0000000000
     11979       104  OSM       H14A            8.4082830305       -0.9406261952      -21.1139072863  MEMB      104             0.0000000000
     11980       104  OSM       H14B           10.0021266530       -0.3147701320      -20.7942853061  MEMB      104             0.0000000000
     11981       104  OSM       H14C            9.0383938173       -1.0700996160      -19.5000666725  MEMB      104             0.0000000000
     11982       104  OSM       C13             8.8587827415       -3.5016070475      -20.7475981910  MEMB      104             0.0000000000
     11983       104  OSM       H13A            9.2351699247       -4.4646466915      -21.0644361085  MEMB      104             0.0000000000
     11984       104  OSM       H13B            7.9594287391       -3.2701075448      -21.3202340174  MEMB      104             0.0000000000
     11985       104  OSM       H13C            8.5453330242       -3.5562379193      -19.7135895397  MEMB      104             0.0000000000
     11986       104  OSM       C12            11.1401658339       -2.7209622564      -20.0969665923  MEMB      104             0.0000000000
     11987       104  OSM       H12A           10.8594265627       -2.7979967085      -19.0567027946  MEMB      104             0.0000000000
     11988       104  OSM       H12B           11.7957888182       -1.8536796705      -20.1771685328  MEMB      104             0.0000000000
     11989       104  OSM       C11            12.0307379859       -3.9364800158      -20.4671070500  MEMB      104             0.0000000000
     11990       104  OSM       H11A           11.4021360056       -4.8266824049      -20.6844729975  MEMB      104             0.0000000000
     11991       104  OSM       H11B           12.6412460929       -4.1988798748      -19.5847786676  MEMB      104             0.0000000000
     11992       104  OSM       P              13.8176314215       -2.3843462890      -21.6368261029  MEMB      104             0.0000000000
     11993       104  OSM       O13            14.9459188592       -2.6354967398      -22.5557112282  MEMB      104             0.0000000000
     11994       104  OSM       O14            12.9246178405       -1.2514126650      -21.9976449754  MEMB      104             0.0000000000
     11995       104  OSM       O11            14.3069627398       -2.1872800388      -20.1340390490  MEMB      104             0.0000000000
     11996       104  OSM       O12            12.8984492000       -3.6883934066      -21.5677381642  MEMB      104             0.0000000000
     11997       104  OSM       C1S            15.2549198853       -3.1099344498      -19.5875402043  MEMB      104             0.0000000000
     11998       104  OSM       H1S            16.2643172128       -2.8577384566      -19.9825484829  MEMB      104             0.0000000000
     11999       104  OSM       H1T            15.0433821253       -4.1560996763      -19.8948331334  MEMB      104             0.0000000000
     12000       104  OSM       NF             14.1772549343       -3.6709660598      -17.3615700302  MEMB      104             0.0000000000
     12001       104  OSM       HNF            13.5941387636       -3.0186654830      -16.8881330355  MEMB      104             0.0000000000
     12002       104  OSM       C2S            15.3420675016       -3.0670117030      -18.0229630373  MEMB      104             0.0000000000
     12003       104  OSM       H2S            16.2360016859       -3.6588810380      -17.7168246569  MEMB      104             0.0000000000
     12004       104  OSM       C3S            15.5498455421       -1.5979086011      -17.5548882025  MEMB      104             0.0000000000
     12005       104  OSM       H3S            14.7278021470       -0.9409500400      -17.9149930347  MEMB      104             0.0000000000
     12006       104  OSM       O3             16.7946570702       -1.0363327155      -17.9692582397  MEMB      104             0.0000000000
     12007       104  OSM       HO3            17.2026296322       -1.7301321958      -18.4912678841  MEMB      104             0.0000000000
     12008       104  OSM       C4S            15.5156196899       -1.6352297476      -16.0601990856  MEMB      104             0.0000000000
     12009       104  OSM       H4S            15.8628383220       -2.5890564386      -15.6436887214  MEMB      104             0.0000000000
     12010       104  OSM       C5S            15.1141056442       -0.7085589608      -15.1863163364  MEMB      104             0.0000000000
     12011       104  OSM       H5S            14.7837468721        0.2908820479      -15.5163724252  MEMB      104             0.0000000000
     12012       104  OSM       C6S            15.1726305170       -0.9922334185      -13.7133575830  MEMB      104             0.0000000000
     12013       104  OSM       H6S            15.5273291190       -0.0996665462      -13.1448148918  MEMB      104             0.0000000000
     12014       104  OSM       H6T            15.8617018442       -1.8334160106      -13.4561091173  MEMB      104             0.0000000000
     12015       104  OSM       C7S            13.7988958986       -1.3930050667      -13.2304381001  MEMB      104             0.0000000000
     12016       104  OSM       H7S            13.9803285435       -1.8057884609      -12.2171904239  MEMB      104             0.0000000000
     12017       104  OSM       H7T            13.3494636683       -2.2153306670      -13.8280878727  MEMB      104             0.0000000000
     12018       104  OSM       C8S            12.8732524492       -0.1768086359      -13.2305741979  MEMB      104             0.0000000000
     12019       104  OSM       H8S            12.6363266007        0.1321424336      -14.2716684157  MEMB      104             0.0000000000
     12020       104  OSM       H8T            13.3899532779        0.6744672736      -12.7274184033  MEMB      104             0.0000000000
     12021       104  OSM       C9S            11.6035278372       -0.4766336345      -12.4713409189  MEMB      104             0.0000000000
     12022       104  OSM       H9S            11.1018689949       -1.3722059976      -12.9019841865  MEMB      104             0.0000000000
     12023       104  OSM       H9T            10.9026732882        0.3874541136      -12.5382761439  MEMB      104             0.0000000000
     12024       104  OSM       C10S           11.9434880173       -0.7074023180      -11.0120719264  MEMB      104             0.0000000000
     12025       104  OSM       H10S           12.2938207598        0.2574033757      -10.5767035088  MEMB      104             0.0000000000
     12026       104  OSM       H10T           12.7494088572       -1.4453898790      -10.8248216980  MEMB      104             0.0000000000
     12027       104  OSM       C11S           10.7609055962       -1.2489163824      -10.2615424089  MEMB      104             0.0000000000
     12028       104  OSM       H11S           10.7106915140       -2.3566547923      -10.3904920559  MEMB      104             0.0000000000
     12029       104  OSM       H11T            9.8129966508       -0.8066064623      -10.6374292688  MEMB      104             0.0000000000
     12030       104  OSM       C12S           10.9780460396       -0.8878009523       -8.8191194547  MEMB      104             0.0000000000
     12031       104  OSM       H12S           10.9763759173        0.2219336546       -8.7195623306  MEMB      104             0.0000000000
     12032       104  OSM       H12T           11.9762897134       -1.2515729317       -8.4779823813  MEMB      104             0.0000000000
     12033       104  OSM       C13S            9.8888246399       -1.4794256094       -7.9693646849  MEMB      104             0.0000000000
     12034       104  OSM       H13S            9.8608715871       -2.5861288750       -8.0984039502  MEMB      104             0.0000000000
     12035       104  OSM       H13T            8.9058712036       -1.0630460227       -8.2855507750  MEMB      104             0.0000000000
     12036       104  OSM       C14S           10.1932477563       -1.1270434209       -6.5370173109  MEMB      104             0.0000000000
     12037       104  OSM       H14S           10.4026749780       -0.0351657263       -6.4481227665  MEMB      104             0.0000000000
     12038       104  OSM       H14T           11.1187131429       -1.6711984074       -6.2322775808  MEMB      104             0.0000000000
     12039       104  OSM       C15S            9.0518872147       -1.4903133566       -5.6136361316  MEMB      104             0.0000000000
     12040       104  OSM       H15S            8.7540467843       -2.5505507199       -5.7821588073  MEMB      104             0.0000000000
     12041       104  OSM       H15T            8.1764812327       -0.8476599684       -5.8329933146  MEMB      104             0.0000000000
     12042       104  OSM       C16S            9.5580717036       -1.2776775376       -4.2007703966  MEMB      104             0.0000000000
     12043       104  OSM       H16S            9.7636155979       -0.1975992921       -4.0246812856  MEMB      104             0.0000000000
     12044       104  OSM       H16T           10.5390447435       -1.8077378909       -4.1407132973  MEMB      104             0.0000000000
     12045       104  OSM       C17S            8.6572577881       -1.8482880950       -3.1236513199  MEMB      104             0.0000000000
     12046       104  OSM       H17S            7.7076441453       -2.2462935534       -3.5442746047  MEMB      104             0.0000000000
     12047       104  OSM       H17T            8.3528874373       -1.0284590937       -2.4496839828  MEMB      104             0.0000000000
     12048       104  OSM       C18S            9.4056727399       -2.9089793677       -2.3291498079  MEMB      104             0.0000000000
     12049       104  OSM       H18S           10.5038193826       -2.7452272295       -2.3331255040  MEMB      104             0.0000000000
     12050       104  OSM       H18T            9.1946512124       -3.9249970120       -2.7222432772  MEMB      104             0.0000000000
     12051       104  OSM       H18U            9.1015474951       -2.8483437260       -1.2728093111  MEMB      104             0.0000000000
     12052       104  OSM       C1F            13.7996251245       -4.9486663785      -17.5020927900  MEMB      104             0.0000000000
     12053       104  OSM       OF             14.3877745710       -5.6944726882      -18.2708246870  MEMB      104             0.0000000000
     12054       104  OSM       C2F            12.5390493381       -5.4046821138      -16.8059753246  MEMB      104             0.0000000000
     12055       104  OSM       H2F            12.0323740099       -6.1117783883      -17.5024178347  MEMB      104             0.0000000000
     12056       104  OSM       H2G            11.8623408047       -4.5399383350      -16.6504082162  MEMB      104             0.0000000000
     12057       104  OSM       C3F            12.7520072277       -6.1477035751      -15.4573342535  MEMB      104             0.0000000000
     12058       104  OSM       H3F            13.6396646431       -6.8176459284      -15.5200304069  MEMB      104             0.0000000000
     12059       104  OSM       H3G            11.8655337972       -6.8013834916      -15.2744231987  MEMB      104             0.0000000000
     12060       104  OSM       C4F            12.8741702969       -5.1915760332      -14.2544777209  MEMB      104             0.0000000000
     12061       104  OSM       H4F            11.9767760310       -4.5380517753      -14.1901192224  MEMB      104             0.0000000000
     12062       104  OSM       H4G            13.7557284710       -4.5359729118      -14.4370345370  MEMB      104             0.0000000000
     12063       104  OSM       C5F            13.0780634890       -5.8865486545      -12.8891138297  MEMB      104             0.0000000000
     12064       104  OSM       H5F            13.6710194032       -5.1736352469      -12.2677839527  MEMB      104             0.0000000000
     12065       104  OSM       H5G            13.6803788004       -6.8120701434      -13.0220305126  MEMB      104             0.0000000000
     12066       104  OSM       C6F            11.8166513570       -6.2025705113      -12.0728867554  MEMB      104             0.0000000000
     12067       104  OSM       H6F            11.0987974393       -6.7844110803      -12.6940320978  MEMB      104             0.0000000000
     12068       104  OSM       H6G            11.3281315169       -5.2421001325      -11.7910420841  MEMB      104             0.0000000000
     12069       104  OSM       C7F            12.0894497465       -7.0086436632      -10.7793362686  MEMB      104             0.0000000000
     12070       104  OSM       H7F            12.2820153869       -8.0678403807      -11.0611293478  MEMB      104             0.0000000000
     12071       104  OSM       H7G            11.1606414147       -7.0018988280      -10.1647495933  MEMB      104             0.0000000000
     12072       104  OSM       C8F            13.2729095013       -6.5245492741       -9.9140655803  MEMB      104             0.0000000000
     12073       104  OSM       H8F            14.2153858716       -6.6684602440      -10.4817437586  MEMB      104             0.0000000000
     12074       104  OSM       H8G            13.3595128589       -7.1870081556       -9.0232057886  MEMB      104             0.0000000000
     12075       104  OSM       C9F            13.1325760238       -5.0838123420       -9.4960196996  MEMB      104             0.0000000000
     12076       104  OSM       H9F            13.7354380134       -4.3671190423      -10.0721659925  MEMB      104             0.0000000000
     12077       104  OSM       C10F           12.3567715522       -4.6247247232       -8.5031922192  MEMB      104             0.0000000000
     12078       104  OSM       H10F           12.2975880948       -3.5384830815       -8.3315963925  MEMB      104             0.0000000000
     12079       104  OSM       C11F           11.4778068778       -5.4676672492       -7.6184252846  MEMB      104             0.0000000000
     12080       104  OSM       H11F           11.6152153693       -6.5600072521       -7.7895920123  MEMB      104             0.0000000000
     12081       104  OSM       H11G           10.4147336735       -5.2486300645       -7.8713642863  MEMB      104             0.0000000000
     12082       104  OSM       C12F           11.6715423707       -5.1779023767       -6.1149414539  MEMB      104             0.0000000000
     12083       104  OSM       H12F           10.8727796134       -5.7471573898       -5.5927335957  MEMB      104             0.0000000000
     12084       104  OSM       H12G           11.4854164744       -4.1008662356       -5.9075819808  MEMB      104             0.0000000000
     12085       104  OSM       C13F           13.0271751797       -5.5849977936       -5.4910012699  MEMB      104             0.0000000000
     12086       104  OSM       H13F           13.7686651696       -4.7822232020       -5.6946751998  MEMB      104             0.0000000000
     12087       104  OSM       H13G           13.3991061238       -6.5165545512       -5.9661126283  MEMB      104             0.0000000000
     12088       104  OSM       C14F           12.8914798156       -5.7702491583       -3.9636804417  MEMB      104             0.0000000000
     12089       104  OSM       H14F           12.1817415403       -6.6075379085       -3.7731250779  MEMB      104             0.0000000000
     12090       104  OSM       H14G           12.4153974847       -4.8439477734       -3.5670791268  MEMB      104             0.0000000000
     12091       104  OSM       C15F           14.1693233380       -6.0451279029       -3.1317631928  MEMB      104             0.0000000000
     12092       104  OSM       H15F           14.3254199785       -7.1496005033       -3.0809410946  MEMB      104             0.0000000000
     12093       104  OSM       H15G           13.9671475605       -5.7096021957       -2.0977236284  MEMB      104             0.0000000000
     12094       104  OSM       C16F           15.4975528103       -5.4046507214       -3.5783322806  MEMB      104             0.0000000000
     12095       104  OSM       H16F           15.5979393020       -5.4550535364       -4.6753703927  MEMB      104             0.0000000000
     12096       104  OSM       H16G           16.3182830719       -6.0305995212       -3.1497976208  MEMB      104             0.0000000000
     12097       104  OSM       C17F           15.7753403367       -3.9696438613       -3.0963329240  MEMB      104             0.0000000000
     12098       104  OSM       H17F           16.7822546131       -3.6801271668       -3.4813305066  MEMB      104             0.0000000000
     12099       104  OSM       H17G           15.8437525736       -3.9855707916       -1.9845137008  MEMB      104             0.0000000000
     12100       104  OSM       C18F           14.7750230006       -2.8881338728       -3.5144754638  MEMB      104             0.0000000000
     12101       104  OSM       H18F           14.3613131059       -2.3910604607       -2.6125247876  MEMB      104             0.0000000000
     12102       104  OSM       H18G           13.9253448373       -3.3060756048       -4.0877685447  MEMB      104             0.0000000000
     12103       104  OSM       H18H           15.2743953294       -2.1184444921       -4.1429813840  MEMB      104             0.0000000000
     12104       105  CHL1      C3             -4.7590200068       11.2564259325      -17.6311816478  MEMB      105             0.0000000000
     12105       105  CHL1      H3             -5.0010319157       12.3086611554      -17.3506690924  MEMB      105             0.0000000000
     12106       105  CHL1      O3             -5.1427129966       11.0182732861      -18.9766637205  MEMB      105             0.0000000000
     12107       105  CHL1      H3'            -4.8741533793       11.7966544119      -19.4720915254  MEMB      105             0.0000000000
     12108       105  CHL1      C4             -3.2429469337       10.9954382547      -17.4949973491  MEMB      105             0.0000000000
     12109       105  CHL1      H4A            -3.0537301416        9.9728629698      -17.8867964470  MEMB      105             0.0000000000
     12110       105  CHL1      H4B            -2.7122494611       11.6949562227      -18.1758951895  MEMB      105             0.0000000000
     12111       105  CHL1      C5             -2.7288629077       11.0804688010      -16.0715086256  MEMB      105             0.0000000000
     12112       105  CHL1      C6             -1.6920634389       11.8466403118      -15.6878321795  MEMB      105             0.0000000000
     12113       105  CHL1      H6             -1.1217213821       12.4290227673      -16.4269408944  MEMB      105             0.0000000000
     12114       105  CHL1      C7             -1.2092773983       11.9141972233      -14.2641208276  MEMB      105             0.0000000000
     12115       105  CHL1      H7A            -0.1042499376       11.9887120933      -14.1950868451  MEMB      105             0.0000000000
     12116       105  CHL1      H7B            -1.6462388923       12.8421291859      -13.8482571676  MEMB      105             0.0000000000
     12117       105  CHL1      C8             -1.7401514911       10.7950088975      -13.3306394521  MEMB      105             0.0000000000
     12118       105  CHL1      H8             -1.1834579458        9.8542106483      -13.5247405413  MEMB      105             0.0000000000
     12119       105  CHL1      C14            -1.5795796730       11.1932287101      -11.8669489568  MEMB      105             0.0000000000
     12120       105  CHL1      H14            -2.1031263114       12.1769983440      -11.7936207699  MEMB      105             0.0000000000
     12121       105  CHL1      C15            -0.1672788796       11.4657925651      -11.3232165282  MEMB      105             0.0000000000
     12122       105  CHL1      H15A            0.5330306037       10.6536866752      -11.6156009188  MEMB      105             0.0000000000
     12123       105  CHL1      H15B            0.2269032562       12.4234224375      -11.7081745833  MEMB      105             0.0000000000
     12124       105  CHL1      C16            -0.3821402625       11.4596935305       -9.7981744325  MEMB      105             0.0000000000
     12125       105  CHL1      H16A            0.2905618624       10.6983977111       -9.3490105185  MEMB      105             0.0000000000
     12126       105  CHL1      H16B           -0.1729589428       12.4458575966       -9.3383516288  MEMB      105             0.0000000000
     12127       105  CHL1      C17            -1.8684631715       11.0419036176       -9.5404007044  MEMB      105             0.0000000000
     12128       105  CHL1      H17            -2.4675628681       11.9797570069       -9.5563028161  MEMB      105             0.0000000000
     12129       105  CHL1      C13            -2.2629905875       10.3002043316      -10.8250663524  MEMB      105             0.0000000000
     12130       105  CHL1      C18            -1.6227530540        8.9027483908      -10.8270957002  MEMB      105             0.0000000000
     12131       105  CHL1      H18A           -1.7532024049        8.3989895327      -11.8045622391  MEMB      105             0.0000000000
     12132       105  CHL1      H18B           -0.5348379020        8.9353528120      -10.6201296072  MEMB      105             0.0000000000
     12133       105  CHL1      H18C           -2.1153808718        8.2726666044      -10.0557484515  MEMB      105             0.0000000000
     12134       105  CHL1      C12            -3.7528694005       10.2135391669      -11.1397628609  MEMB      105             0.0000000000
     12135       105  CHL1      H12A           -4.2573387146        9.4758620087      -10.4858346068  MEMB      105             0.0000000000
     12136       105  CHL1      H12B           -4.2269070466       11.2089528919      -10.9973440937  MEMB      105             0.0000000000
     12137       105  CHL1      C11            -3.9560017844        9.7518814835      -12.5800177202  MEMB      105             0.0000000000
     12138       105  CHL1      H11A           -3.6183000649        8.6996738429      -12.6774129085  MEMB      105             0.0000000000
     12139       105  CHL1      H11B           -5.0446940843        9.7803140212      -12.7601865071  MEMB      105             0.0000000000
     12140       105  CHL1      C9             -3.2306944112       10.6374484154      -13.6122514445  MEMB      105             0.0000000000
     12141       105  CHL1      H9             -3.6530980097       11.6657719301      -13.4602565415  MEMB      105             0.0000000000
     12142       105  CHL1      C10            -3.5528033476       10.2596602613      -15.0709435724  MEMB      105             0.0000000000
     12143       105  CHL1      C19            -3.1585493471        8.7785859967      -15.3097992267  MEMB      105             0.0000000000
     12144       105  CHL1      H19A           -3.3016006961        8.4837423827      -16.3689700388  MEMB      105             0.0000000000
     12145       105  CHL1      H19B           -2.0957273947        8.6065296876      -15.0446172376  MEMB      105             0.0000000000
     12146       105  CHL1      H19C           -3.7971776286        8.1047609410      -14.7072163887  MEMB      105             0.0000000000
     12147       105  CHL1      C1             -5.0825982386       10.4656747674      -15.2788079138  MEMB      105             0.0000000000
     12148       105  CHL1      H1A            -5.6351905449        9.7013663204      -14.6926378200  MEMB      105             0.0000000000
     12149       105  CHL1      H1B            -5.3685063562       11.4695777330      -14.8969229885  MEMB      105             0.0000000000
     12150       105  CHL1      C2             -5.5570466780       10.3217210986      -16.7247654930  MEMB      105             0.0000000000
     12151       105  CHL1      H2A            -6.6459685479       10.5377093638      -16.7893926740  MEMB      105             0.0000000000
     12152       105  CHL1      H2B            -5.4205897438        9.2625470758      -17.0417577853  MEMB      105             0.0000000000
     12153       105  CHL1      C20            -2.1218106348       10.4614312227       -8.1332002585  MEMB      105             0.0000000000
     12154       105  CHL1      H20            -1.7550614183        9.4131342133       -8.0765230015  MEMB      105             0.0000000000
     12155       105  CHL1      C21            -3.6304877209       10.4901142109       -7.7999624760  MEMB      105             0.0000000000
     12156       105  CHL1      H21A           -4.0006887807       11.5365422236       -7.7552333343  MEMB      105             0.0000000000
     12157       105  CHL1      H21B           -3.8201298686       10.0028737497       -6.8197812111  MEMB      105             0.0000000000
     12158       105  CHL1      H21C           -4.2298144545        9.9395968097       -8.5450832855  MEMB      105             0.0000000000
     12159       105  CHL1      C22            -1.3399495746       11.3342493756       -7.1104210939  MEMB      105             0.0000000000
     12160       105  CHL1      H22A           -0.2510750247       11.1481694965       -7.2447830820  MEMB      105             0.0000000000
     12161       105  CHL1      H22B           -1.5504692392       12.3925911689       -7.3816747953  MEMB      105             0.0000000000
     12162       105  CHL1      C23            -1.6243755582       11.2009293040       -5.6052359767  MEMB      105             0.0000000000
     12163       105  CHL1      H23A           -2.6609517000       11.5159631606       -5.3613926054  MEMB      105             0.0000000000
     12164       105  CHL1      H23B           -1.5101282256       10.1326331549       -5.3087869221  MEMB      105             0.0000000000
     12165       105  CHL1      C24            -0.6078742263       12.0377132053       -4.7913426767  MEMB      105             0.0000000000
     12166       105  CHL1      H24A           -0.7328461116       11.8099621960       -3.7121955127  MEMB      105             0.0000000000
     12167       105  CHL1      H24B            0.4046484219       11.6944613681       -5.0889708741  MEMB      105             0.0000000000
     12168       105  CHL1      C25            -0.6448639878       13.5793500939       -4.9666456386  MEMB      105             0.0000000000
     12169       105  CHL1      H25            -1.1260593082       13.8181739290       -5.9420539213  MEMB      105             0.0000000000
     12170       105  CHL1      C26            -1.4815521437       14.2421580449       -3.8595661894  MEMB      105             0.0000000000
     12171       105  CHL1      H26A           -1.3128769046       13.7465553171       -2.8812567340  MEMB      105             0.0000000000
     12172       105  CHL1      H26B           -1.2065011679       15.3133796439       -3.7549164752  MEMB      105             0.0000000000
     12173       105  CHL1      H26C           -2.5619415969       14.1762446122       -4.1042328210  MEMB      105             0.0000000000
     12174       105  CHL1      C27             0.7624393343       14.2169360960       -5.0318053927  MEMB      105             0.0000000000
     12175       105  CHL1      H27A            0.7075327139       15.3010100107       -4.7980637823  MEMB      105             0.0000000000
     12176       105  CHL1      H27B            1.4693093326       13.7427934694       -4.3227816701  MEMB      105             0.0000000000
     12177       105  CHL1      H27C            1.1792627647       14.1252030710       -6.0539683055  MEMB      105             0.0000000000
     12178       106  POPC      N               8.0816353746       -8.7667787454      -21.0113814397  MEMB      106             0.0000000000
     12179       106  POPC      C12             9.0365016138       -8.7095301498      -19.8121244116  MEMB      106             0.0000000000
     12180       106  POPC      H12A            8.4836368063       -8.2860460438      -18.9710536047  MEMB      106             0.0000000000
     12181       106  POPC      H12B            9.8643726640       -8.0512431409      -20.0226708425  MEMB      106             0.0000000000
     12182       106  POPC      C13             6.7161364350       -9.0696440391      -20.4755713174  MEMB      106             0.0000000000
     12183       106  POPC      H13A            6.4762721841       -8.4337427763      -19.6300186315  MEMB      106             0.0000000000
     12184       106  POPC      H13B            5.9468785760       -9.0224618196      -21.2281228545  MEMB      106             0.0000000000
     12185       106  POPC      H13C            6.7296218437      -10.0735098098      -20.0390052459  MEMB      106             0.0000000000
     12186       106  POPC      C14             8.0941499708       -7.5004009896      -21.8056442625  MEMB      106             0.0000000000
     12187       106  POPC      H14A            7.2393106744       -7.4370471804      -22.4770813359  MEMB      106             0.0000000000
     12188       106  POPC      H14B            8.0877607743       -6.6271254249      -21.1708925401  MEMB      106             0.0000000000
     12189       106  POPC      H14C            8.9776726048       -7.4446822922      -22.4423650046  MEMB      106             0.0000000000
     12190       106  POPC      C15             8.4771173087       -9.8829998955      -21.9199722054  MEMB      106             0.0000000000
     12191       106  POPC      H15A            9.3761222209       -9.6487726532      -22.4765017876  MEMB      106             0.0000000000
     12192       106  POPC      H15B            7.6842167338      -10.1416859562      -22.6093478406  MEMB      106             0.0000000000
     12193       106  POPC      H15C            8.7114828637      -10.7475056552      -21.3058800606  MEMB      106             0.0000000000
     12194       106  POPC      C11             9.5894776546      -10.0463522413      -19.2373208189  MEMB      106             0.0000000000
     12195       106  POPC      H11A           10.1634370646       -9.8186495705      -18.3002709068  MEMB      106             0.0000000000
     12196       106  POPC      H11B           10.3249615195      -10.4867859842      -19.9421622118  MEMB      106             0.0000000000
     12197       106  POPC      P               7.7029442718      -10.8478804652      -17.6619733004  MEMB      106             0.0000000000
     12198       106  POPC      O13             6.6661054110      -11.8896094405      -17.7163178683  MEMB      106             0.0000000000
     12199       106  POPC      O14             7.2441567355       -9.4416291897      -17.5784743486  MEMB      106             0.0000000000
     12200       106  POPC      O12             8.5387487912      -10.9924362691      -19.0086876155  MEMB      106             0.0000000000
     12201       106  POPC      O11             8.7742890917      -11.1751622136      -16.5698245460  MEMB      106             0.0000000000
     12202       106  POPC      C1              9.1517147187      -12.5398872006      -16.3644203399  MEMB      106             0.0000000000
     12203       106  POPC      HA             10.0404544900      -12.7689371338      -16.9952545042  MEMB      106             0.0000000000
     12204       106  POPC      HB              8.3555279141      -13.2726399100      -16.6268235233  MEMB      106             0.0000000000
     12205       106  POPC      C2              9.5719864652      -12.6967056217      -14.8863196841  MEMB      106             0.0000000000
     12206       106  POPC      HS             10.1451294009      -13.6445832130      -14.7632687107  MEMB      106             0.0000000000
     12207       106  POPC      O21             8.4613725996      -12.6708180617      -13.9606981360  MEMB      106             0.0000000000
     12208       106  POPC      C21             7.6840224529      -13.7337634065      -14.0428093856  MEMB      106             0.0000000000
     12209       106  POPC      O22             7.8525654436      -14.6876001542      -14.7852904530  MEMB      106             0.0000000000
     12210       106  POPC      C22             6.5959568324      -13.6708553753      -12.9738181323  MEMB      106             0.0000000000
     12211       106  POPC      H2R             5.7228818919      -14.2451964173      -13.3483327602  MEMB      106             0.0000000000
     12212       106  POPC      H2S             6.2979511433      -12.6139165649      -12.8307893682  MEMB      106             0.0000000000
     12213       106  POPC      C3             10.5142219646      -11.5154256122      -14.5847970522  MEMB      106             0.0000000000
     12214       106  POPC      HX              9.8964097832      -10.5896605515      -14.6849878301  MEMB      106             0.0000000000
     12215       106  POPC      HY             11.3017280873      -11.4762253942      -15.3659270350  MEMB      106             0.0000000000
     12216       106  POPC      O31            11.1175891660      -11.6860181209      -13.2982293832  MEMB      106             0.0000000000
     12217       106  POPC      C31            10.9418675661      -10.6687955951      -12.4732833954  MEMB      106             0.0000000000
     12218       106  POPC      O32            10.5173888689       -9.5684267516      -12.7704789232  MEMB      106             0.0000000000
     12219       106  POPC      C32            11.3448381235      -11.1102826119      -11.0697182398  MEMB      106             0.0000000000
     12220       106  POPC      H2X            12.3525088814      -10.6905414256      -10.8718716375  MEMB      106             0.0000000000
     12221       106  POPC      H2Y            11.4014071213      -12.2173360194      -11.0297899477  MEMB      106             0.0000000000
     12222       106  POPC      C23             7.0788572841      -14.2821348650      -11.6367066620  MEMB      106             0.0000000000
     12223       106  POPC      H3R             7.9987844900      -13.7524385818      -11.2971664733  MEMB      106             0.0000000000
     12224       106  POPC      H3S             7.3381382635      -15.3560221693      -11.7824720564  MEMB      106             0.0000000000
     12225       106  POPC      C24             6.0232784060      -14.1715780561      -10.5291574045  MEMB      106             0.0000000000
     12226       106  POPC      H4R             5.0513309131      -14.5676811169      -10.9011091302  MEMB      106             0.0000000000
     12227       106  POPC      H4S             5.8751915973      -13.0950554286      -10.2897047478  MEMB      106             0.0000000000
     12228       106  POPC      C25             6.4090769664      -14.9386341473       -9.2531839664  MEMB      106             0.0000000000
     12229       106  POPC      H5R             7.4414820265      -14.6634267029       -8.9403889422  MEMB      106             0.0000000000
     12230       106  POPC      H5S             6.4075378978      -16.0270638633       -9.4920551030  MEMB      106             0.0000000000
     12231       106  POPC      C26             5.4442207206      -14.6749498482       -8.0867048248  MEMB      106             0.0000000000
     12232       106  POPC      H6R             5.5365307589      -15.4898565636       -7.3335287216  MEMB      106             0.0000000000
     12233       106  POPC      H6S             4.4015608331      -14.6872285071       -8.4758019573  MEMB      106             0.0000000000
     12234       106  POPC      C27             5.7157355604      -13.3341374123       -7.3847484936  MEMB      106             0.0000000000
     12235       106  POPC      H7R             5.8028439568      -12.5388670067       -8.1578459890  MEMB      106             0.0000000000
     12236       106  POPC      H7S             6.6912778477      -13.3830301090       -6.8513007761  MEMB      106             0.0000000000
     12237       106  POPC      C28             4.6021484955      -12.9081925296       -6.4115883280  MEMB      106             0.0000000000
     12238       106  POPC      H8R             3.6465241791      -12.8691489151       -6.9789800465  MEMB      106             0.0000000000
     12239       106  POPC      H8S             4.8052665129      -11.8637995785       -6.0842706635  MEMB      106             0.0000000000
     12240       106  POPC      C29             4.4693206006      -13.8157083823       -5.2156916925  MEMB      106             0.0000000000
     12241       106  POPC      H91             3.8178555877      -14.6927184121       -5.3528031151  MEMB      106             0.0000000000
     12242       106  POPC      C210            5.1150388160      -13.6574442239       -4.0478274274  MEMB      106             0.0000000000
     12243       106  POPC      H101            4.9461217521      -14.3829821632       -3.2361921012  MEMB      106             0.0000000000
     12244       106  POPC      C211            6.0909475141      -12.5533968712       -3.7228783075  MEMB      106             0.0000000000
     12245       106  POPC      H11R            5.5396001020      -11.6344321834       -3.4173592152  MEMB      106             0.0000000000
     12246       106  POPC      H11S            6.7100737533      -12.2840963885       -4.6099703365  MEMB      106             0.0000000000
     12247       106  POPC      C212            7.0273487931      -12.9857224536       -2.5716358773  MEMB      106             0.0000000000
     12248       106  POPC      H12R            6.3975256149      -13.2488316762       -1.6913650246  MEMB      106             0.0000000000
     12249       106  POPC      H12S            7.6239264994      -12.1158457970       -2.2322116297  MEMB      106             0.0000000000
     12250       106  POPC      C213            7.9332783079      -14.1954198236       -2.9114012500  MEMB      106             0.0000000000
     12251       106  POPC      H13R            7.4837591337      -14.7993907207       -3.7283366644  MEMB      106             0.0000000000
     12252       106  POPC      H13S            7.9281472408      -14.8729522552       -2.0276427400  MEMB      106             0.0000000000
     12253       106  POPC      C214            9.4186431222      -13.9270558131       -3.2625035247  MEMB      106             0.0000000000
     12254       106  POPC      H14R            9.6478485138      -14.4593773856       -4.2131705376  MEMB      106             0.0000000000
     12255       106  POPC      H14S           10.0568771088      -14.4030041188       -2.4857598049  MEMB      106             0.0000000000
     12256       106  POPC      C215            9.8641350403      -12.4668120238       -3.4216419708  MEMB      106             0.0000000000
     12257       106  POPC      H15R            9.0086685287      -11.8294128972       -3.7230693445  MEMB      106             0.0000000000
     12258       106  POPC      H15S           10.5951158780      -12.3944663024       -4.2571407320  MEMB      106             0.0000000000
     12259       106  POPC      C216           10.5620836831      -11.9020956534       -2.1739430245  MEMB      106             0.0000000000
     12260       106  POPC      H16R            9.9004481758      -11.9739099462       -1.2839283956  MEMB      106             0.0000000000
     12261       106  POPC      H16S           10.7573125438      -10.8335930661       -2.3773537727  MEMB      106             0.0000000000
     12262       106  POPC      C217           11.9229784127      -12.5379323013       -1.8685837046  MEMB      106             0.0000000000
     12263       106  POPC      H17R           12.4568735366      -12.7062536007       -2.8273986227  MEMB      106             0.0000000000
     12264       106  POPC      H17S           11.7544353605      -13.5417081080       -1.4275661272  MEMB      106             0.0000000000
     12265       106  POPC      C218           12.8055745752      -11.6904605065       -0.9403521649  MEMB      106             0.0000000000
     12266       106  POPC      H18R           13.1450167482      -10.7729626050       -1.4653807907  MEMB      106             0.0000000000
     12267       106  POPC      H18S           13.7015009912      -12.2666218652       -0.6262858209  MEMB      106             0.0000000000
     12268       106  POPC      H18T           12.2527180997      -11.3788023252       -0.0278511833  MEMB      106             0.0000000000
     12269       106  POPC      C33            10.3410560478      -10.5866805416      -10.0235819910  MEMB      106             0.0000000000
     12270       106  POPC      H3X            10.2311088077       -9.4823460225      -10.1301677050  MEMB      106             0.0000000000
     12271       106  POPC      H3Y            10.7522076190      -10.7851314148       -9.0084156055  MEMB      106             0.0000000000
     12272       106  POPC      C34             8.9532554124      -11.2411415519      -10.1291552080  MEMB      106             0.0000000000
     12273       106  POPC      H4X             9.0210917995      -12.3030915537       -9.8044914177  MEMB      106             0.0000000000
     12274       106  POPC      H4Y             8.6222935670      -11.2407456244      -11.1941971924  MEMB      106             0.0000000000
     12275       106  POPC      C35             7.8811278696      -10.5047838654       -9.3003094197  MEMB      106             0.0000000000
     12276       106  POPC      H5X             6.9009342078      -11.0064780231       -9.4520672564  MEMB      106             0.0000000000
     12277       106  POPC      H5Y             7.7929398784       -9.4707971294       -9.7042244069  MEMB      106             0.0000000000
     12278       106  POPC      C36             8.2122403800      -10.4311003476       -7.7967899923  MEMB      106             0.0000000000
     12279       106  POPC      H6X             9.1849381940       -9.9090460779       -7.6710761460  MEMB      106             0.0000000000
     12280       106  POPC      H6Y             8.3278358107      -11.4670345941       -7.4018842454  MEMB      106             0.0000000000
     12281       106  POPC      C37             7.1708739979       -9.6975800410       -6.9267869967  MEMB      106             0.0000000000
     12282       106  POPC      H7X             6.2986938517      -10.3815298507       -6.8102622563  MEMB      106             0.0000000000
     12283       106  POPC      H7Y             6.8083055565       -8.7785049876       -7.4328716833  MEMB      106             0.0000000000
     12284       106  POPC      C38             7.7050466649       -9.3623201905       -5.5148544037  MEMB      106             0.0000000000
     12285       106  POPC      H8X             8.2828311931      -10.2454944475       -5.1653404227  MEMB      106             0.0000000000
     12286       106  POPC      H8Y             6.8487809528       -9.2278279845       -4.8159037908  MEMB      106             0.0000000000
     12287       106  POPC      C39             8.6006687731       -8.1090424549       -5.4155953008  MEMB      106             0.0000000000
     12288       106  POPC      H9X             7.9632546710       -7.2238210854       -5.1886308369  MEMB      106             0.0000000000
     12289       106  POPC      H9Y             9.0690275239       -7.9212737424       -6.4097652227  MEMB      106             0.0000000000
     12290       106  POPC      C310            9.7278573600       -8.2130948571       -4.3501979086  MEMB      106             0.0000000000
     12291       106  POPC      H10X           10.2030655278       -7.2163759113       -4.2628003137  MEMB      106             0.0000000000
     12292       106  POPC      H10Y           10.4783475875       -8.9289743220       -4.7507031389  MEMB      106             0.0000000000
     12293       106  POPC      C311            9.2549519007       -8.6721022265       -2.9482649700  MEMB      106             0.0000000000
     12294       106  POPC      H11X            9.0730103121       -9.7633785089       -3.0027814500  MEMB      106             0.0000000000
     12295       106  POPC      H11Y            8.2772493520       -8.1758290185       -2.7702613998  MEMB      106             0.0000000000
     12296       106  POPC      C312           10.1260906250       -8.3772421308       -1.6908663365  MEMB      106             0.0000000000
     12297       106  POPC      H12X           10.4802969462       -7.3225057461       -1.7430130094  MEMB      106             0.0000000000
     12298       106  POPC      H12Y           11.0379880262       -9.0024378271       -1.6331494265  MEMB      106             0.0000000000
     12299       106  POPC      C313            9.3164315691       -8.5290758139       -0.3714147163  MEMB      106             0.0000000000
     12300       106  POPC      H13X            8.5756606500       -7.7105248392       -0.4861999722  MEMB      106             0.0000000000
     12301       106  POPC      H13Y            9.9037885257       -8.2806776341        0.5367680420  MEMB      106             0.0000000000
     12302       106  POPC      C314            8.4513172296       -9.8028246860       -0.1931025289  MEMB      106             0.0000000000
     12303       106  POPC      H14X            8.4593571085      -10.4016301207       -1.1207753066  MEMB      106             0.0000000000
     12304       106  POPC      H14Y            7.3984779598       -9.4657620088       -0.0599116806  MEMB      106             0.0000000000
     12305       106  POPC      C315            8.7200517703      -10.7663557605        0.9775328291  MEMB      106             0.0000000000
     12306       106  POPC      H15X            8.7466329101      -10.2209727603        1.9435144919  MEMB      106             0.0000000000
     12307       106  POPC      H15Y            9.7222269752      -11.2275744923        0.8650133712  MEMB      106             0.0000000000
     12308       106  POPC      C316            7.6344586852      -11.8656024367        1.0170302257  MEMB      106             0.0000000000
     12309       106  POPC      H16X            7.6945585393      -12.4886803650        1.9355507477  MEMB      106             0.0000000000
     12310       106  POPC      H16Y            7.7302362273      -12.5270725088        0.1383603196  MEMB      106             0.0000000000
     12311       106  POPC      H16Z            6.6134511552      -11.4446900676        0.9534955963  MEMB      106             0.0000000000
     12312       107  SAPC      N             -13.1356808091       -0.3561832423      -19.8356984701  MEMB      107             0.0000000000
     12313       107  SAPC      C12           -13.0356900924       -1.7073070789      -19.1204187777  MEMB      107             0.0000000000
     12314       107  SAPC      H12A          -13.9141239252       -1.8490812348      -18.5036221002  MEMB      107             0.0000000000
     12315       107  SAPC      H12B          -12.1750071130       -1.6546356164      -18.4531174982  MEMB      107             0.0000000000
     12316       107  SAPC      C13           -13.4868141529        0.7030305206      -18.8460077946  MEMB      107             0.0000000000
     12317       107  SAPC      H13A          -13.5898611832        1.6499778523      -19.3590430129  MEMB      107             0.0000000000
     12318       107  SAPC      H13B          -14.4283882248        0.4786569858      -18.3672903508  MEMB      107             0.0000000000
     12319       107  SAPC      H13C          -12.7176729287        0.7687299470      -18.0798767965  MEMB      107             0.0000000000
     12320       107  SAPC      C14           -11.7780316211       -0.0435208555      -20.3991081928  MEMB      107             0.0000000000
     12321       107  SAPC      H14A          -11.4966391878       -0.8415305402      -21.0858463108  MEMB      107             0.0000000000
     12322       107  SAPC      H14B          -11.7471712116        0.8793293288      -20.9599734649  MEMB      107             0.0000000000
     12323       107  SAPC      H14C          -10.9963214014       -0.0424690330      -19.6402861551  MEMB      107             0.0000000000
     12324       107  SAPC      C15           -14.1258968223       -0.3515783361      -20.9802858546  MEMB      107             0.0000000000
     12325       107  SAPC      H15A          -13.9190186698       -1.1922618972      -21.6450667453  MEMB      107             0.0000000000
     12326       107  SAPC      H15B          -15.1617544940       -0.4208606098      -20.6640440057  MEMB      107             0.0000000000
     12327       107  SAPC      H15C          -14.0276091766        0.5485885071      -21.5898631353  MEMB      107             0.0000000000
     12328       107  SAPC      C11           -12.7947988529       -3.0079149682      -19.9438251549  MEMB      107             0.0000000000
     12329       107  SAPC      H11A          -13.6279788597       -3.1567504486      -20.6667301561  MEMB      107             0.0000000000
     12330       107  SAPC      H11B          -12.8300855693       -3.8633570108      -19.2201148512  MEMB      107             0.0000000000
     12331       107  SAPC      P             -10.4756580742       -4.1213257481      -20.6512099647  MEMB      107             0.0000000000
     12332       107  SAPC      O13           -11.1443395275       -5.3611835157      -21.0950345380  MEMB      107             0.0000000000
     12333       107  SAPC      O14            -9.2784592631       -3.6706651118      -21.4019030304  MEMB      107             0.0000000000
     12334       107  SAPC      O12           -11.5535113537       -2.9426695845      -20.6467453232  MEMB      107             0.0000000000
     12335       107  SAPC      O11           -10.1249874904       -4.2395334506      -19.1162816763  MEMB      107             0.0000000000
     12336       107  SAPC      C1             -9.7278041980       -2.9856492311      -18.5372160880  MEMB      107             0.0000000000
     12337       107  SAPC      HA             -8.6817133387       -2.7466054760      -18.8387395585  MEMB      107             0.0000000000
     12338       107  SAPC      HB            -10.3720939390       -2.1387777009      -18.8626711822  MEMB      107             0.0000000000
     12339       107  SAPC      C2             -9.8111425032       -3.0088519889      -16.9962093207  MEMB      107             0.0000000000
     12340       107  SAPC      HS            -10.8623754413       -2.8077085832      -16.6847715983  MEMB      107             0.0000000000
     12341       107  SAPC      O21            -8.9414320315       -2.0443614657      -16.3891577897  MEMB      107             0.0000000000
     12342       107  SAPC      C21            -8.9936357999       -0.8085448654      -16.7960584182  MEMB      107             0.0000000000
     12343       107  SAPC      O22            -9.6981030693       -0.3587559326      -17.6922159628  MEMB      107             0.0000000000
     12344       107  SAPC      C22            -8.0008576406        0.0269685561      -15.9704036661  MEMB      107             0.0000000000
     12345       107  SAPC      H2R            -6.9991630620       -0.2089950162      -16.3349363686  MEMB      107             0.0000000000
     12346       107  SAPC      H2S            -8.1298580749        1.0703044421      -16.3063801133  MEMB      107             0.0000000000
     12347       107  SAPC      C3             -9.4197601410       -4.3922352450      -16.4401105416  MEMB      107             0.0000000000
     12348       107  SAPC      HX             -8.4764262026       -4.6903098707      -16.9499891084  MEMB      107             0.0000000000
     12349       107  SAPC      HY            -10.2150788721       -5.1206023974      -16.7166124125  MEMB      107             0.0000000000
     12350       107  SAPC      O31            -9.1893274167       -4.2765102766      -15.0255036102  MEMB      107             0.0000000000
     12351       107  SAPC      C31            -9.9358932495       -4.9770629891      -14.2059886089  MEMB      107             0.0000000000
     12352       107  SAPC      O32           -10.6688038638       -5.9038908637      -14.5014710543  MEMB      107             0.0000000000
     12353       107  SAPC      C32            -9.6864830517       -4.4634008501      -12.7843725580  MEMB      107             0.0000000000
     12354       107  SAPC      H2X            -9.7568886910       -3.3640011235      -12.8271925007  MEMB      107             0.0000000000
     12355       107  SAPC      H2Y            -8.6485843555       -4.7346480551      -12.5013242036  MEMB      107             0.0000000000
     12356       107  SAPC      C23            -8.1101802219        0.0877275219      -14.4037906887  MEMB      107             0.0000000000
     12357       107  SAPC      H3R            -8.9249951887        0.7887519565      -14.2223402248  MEMB      107             0.0000000000
     12358       107  SAPC      H3S            -7.2106697465        0.6267194314      -14.0355173873  MEMB      107             0.0000000000
     12359       107  SAPC      C24            -8.3187402856       -1.1368844640      -13.4575945928  MEMB      107             0.0000000000
     12360       107  SAPC      H4R            -7.3365359482       -1.3511151210      -13.0033166293  MEMB      107             0.0000000000
     12361       107  SAPC      H4S            -8.5913615783       -2.0339053279      -14.0518550402  MEMB      107             0.0000000000
     12362       107  SAPC      C25            -9.3402902657       -0.9060296016      -12.3524914852  MEMB      107             0.0000000000
     12363       107  SAPC      H5R           -10.3562223389       -0.7555243380      -12.7570395813  MEMB      107             0.0000000000
     12364       107  SAPC      C26            -9.1915011652       -0.8310460984      -11.0025179604  MEMB      107             0.0000000000
     12365       107  SAPC      H6R           -10.0880586863       -0.5961035982      -10.4060178986  MEMB      107             0.0000000000
     12366       107  SAPC      C27            -7.9577081521       -0.9513381275      -10.1306363171  MEMB      107             0.0000000000
     12367       107  SAPC      H7R            -8.0672414382       -0.2983709213       -9.2349069359  MEMB      107             0.0000000000
     12368       107  SAPC      H7S            -7.0701670568       -0.5552327206      -10.6687618240  MEMB      107             0.0000000000
     12369       107  SAPC      C28            -7.7008485109       -2.3857119427       -9.7363703289  MEMB      107             0.0000000000
     12370       107  SAPC      H8R            -7.5936243906       -3.0510091926      -10.6064467468  MEMB      107             0.0000000000
     12371       107  SAPC      C29            -7.5158874845       -2.9345329746       -8.5153614086  MEMB      107             0.0000000000
     12372       107  SAPC      H9R            -7.3364947970       -4.0219205916       -8.4661950480  MEMB      107             0.0000000000
     12373       107  SAPC      C210           -7.5098163632       -2.2560692233       -7.1687384852  MEMB      107             0.0000000000
     12374       107  SAPC      H10R           -7.8309625743       -1.1960273952       -7.2488502207  MEMB      107             0.0000000000
     12375       107  SAPC      H10S           -6.4648240066       -2.2047851217       -6.7892229170  MEMB      107             0.0000000000
     12376       107  SAPC      C211           -8.3388077063       -3.0121942826       -6.1605837721  MEMB      107             0.0000000000
     12377       107  SAPC      H11R           -7.9268087032       -3.9753179033       -5.8159792773  MEMB      107             0.0000000000
     12378       107  SAPC      C212           -9.4965686886       -2.5848800952       -5.6305277390  MEMB      107             0.0000000000
     12379       107  SAPC      H12R          -10.0059853508       -3.1982670055       -4.8684011753  MEMB      107             0.0000000000
     12380       107  SAPC      C213          -10.1706788866       -1.2832285285       -5.9558674650  MEMB      107             0.0000000000
     12381       107  SAPC      H13R           -9.4349229314       -0.4488684942       -5.9893743487  MEMB      107             0.0000000000
     12382       107  SAPC      H13S          -10.8689961032       -1.0260763143       -5.1334878331  MEMB      107             0.0000000000
     12383       107  SAPC      C214          -10.8739538253       -1.4077210556       -7.2855995687  MEMB      107             0.0000000000
     12384       107  SAPC      H14R          -10.2050795380       -1.4042005250       -8.1617635864  MEMB      107             0.0000000000
     12385       107  SAPC      C215          -12.1892291038       -1.6078964986       -7.4803874403  MEMB      107             0.0000000000
     12386       107  SAPC      H15R          -12.5501733010       -1.7253340186       -8.5123140144  MEMB      107             0.0000000000
     12387       107  SAPC      C216          -13.2460949627       -1.7526218683       -6.4124522554  MEMB      107             0.0000000000
     12388       107  SAPC      H16R          -12.9097658196       -2.4944736217       -5.6593101984  MEMB      107             0.0000000000
     12389       107  SAPC      H16S          -14.1766547133       -2.1557709685       -6.8682779806  MEMB      107             0.0000000000
     12390       107  SAPC      C217          -13.6016778406       -0.4665731726       -5.6452603246  MEMB      107             0.0000000000
     12391       107  SAPC      H17R          -13.6730402916        0.3917330386       -6.3469775895  MEMB      107             0.0000000000
     12392       107  SAPC      H17S          -12.7782584595       -0.2575102002       -4.9259034753  MEMB      107             0.0000000000
     12393       107  SAPC      C218          -14.9164122888       -0.5375929076       -4.8479547727  MEMB      107             0.0000000000
     12394       107  SAPC      H18R          -15.7617076266       -0.6622646705       -5.5584507857  MEMB      107             0.0000000000
     12395       107  SAPC      H18S          -15.0616006908        0.4255486944       -4.3098248703  MEMB      107             0.0000000000
     12396       107  SAPC      C219          -14.9216396721       -1.6940464442       -3.8460545000  MEMB      107             0.0000000000
     12397       107  SAPC      H19R          -13.9337784286       -1.7054816269       -3.3305177227  MEMB      107             0.0000000000
     12398       107  SAPC      H19S          -15.0182111053       -2.6312362602       -4.4380610876  MEMB      107             0.0000000000
     12399       107  SAPC      C220          -16.0202316728       -1.6620282116       -2.7814388554  MEMB      107             0.0000000000
     12400       107  SAPC      H20R          -17.0103929209       -1.4545089025       -3.2416802737  MEMB      107             0.0000000000
     12401       107  SAPC      H20S          -15.7981743590       -0.8771752422       -2.0250166089  MEMB      107             0.0000000000
     12402       107  SAPC      H20T          -16.0729928864       -2.6448039164       -2.2597425531  MEMB      107             0.0000000000
     12403       107  SAPC      C33           -10.6775693488       -4.9662951693      -11.7037273718  MEMB      107             0.0000000000
     12404       107  SAPC      H3X           -10.6104928631       -6.0736754930      -11.6251269394  MEMB      107             0.0000000000
     12405       107  SAPC      H3Y           -11.7202368697       -4.6964268364      -11.9862307328  MEMB      107             0.0000000000
     12406       107  SAPC      C34           -10.3411561120       -4.3370077862      -10.3431320116  MEMB      107             0.0000000000
     12407       107  SAPC      H4X           -10.6879194080       -3.2806546629      -10.3104311355  MEMB      107             0.0000000000
     12408       107  SAPC      H4Y            -9.2334674863       -4.3421469423      -10.2768309232  MEMB      107             0.0000000000
     12409       107  SAPC      C35           -10.8102461781       -5.1043845998       -9.0988796886  MEMB      107             0.0000000000
     12410       107  SAPC      H5X           -10.3725278621       -4.6094307555       -8.2002843346  MEMB      107             0.0000000000
     12411       107  SAPC      H5Y           -10.3893084823       -6.1328338541       -9.1447759842  MEMB      107             0.0000000000
     12412       107  SAPC      C36           -12.3291547780       -5.1807042660       -8.9168129114  MEMB      107             0.0000000000
     12413       107  SAPC      H6X           -12.8177105205       -5.3311061041       -9.9057158661  MEMB      107             0.0000000000
     12414       107  SAPC      H6Y           -12.7000296089       -4.2137714725       -8.5111695241  MEMB      107             0.0000000000
     12415       107  SAPC      C37           -12.7673566603       -6.3278850331       -7.9881797988  MEMB      107             0.0000000000
     12416       107  SAPC      H7X           -12.5844701797       -7.2922795702       -8.5133907689  MEMB      107             0.0000000000
     12417       107  SAPC      H7Y           -13.8662409153       -6.2369524359       -7.8317602627  MEMB      107             0.0000000000
     12418       107  SAPC      C38           -12.0693583963       -6.4003396151       -6.6133391076  MEMB      107             0.0000000000
     12419       107  SAPC      H8X           -11.0098932372       -6.7139952467       -6.7300120327  MEMB      107             0.0000000000
     12420       107  SAPC      H8Y           -12.5899010079       -7.1935432707       -6.0290102329  MEMB      107             0.0000000000
     12421       107  SAPC      C39           -12.1258769028       -5.0927436183       -5.8128617916  MEMB      107             0.0000000000
     12422       107  SAPC      H9X           -13.1240916251       -4.6415283368       -6.0118280864  MEMB      107             0.0000000000
     12423       107  SAPC      H9Y           -11.3862414805       -4.3688832626       -6.2030729243  MEMB      107             0.0000000000
     12424       107  SAPC      C310          -11.9625886467       -5.2602505115       -4.2848947640  MEMB      107             0.0000000000
     12425       107  SAPC      H10X          -10.8991683961       -5.1556693748       -3.9869100571  MEMB      107             0.0000000000
     12426       107  SAPC      H10Y          -12.2833564460       -6.2838035063       -4.0033423289  MEMB      107             0.0000000000
     12427       107  SAPC      C311          -12.8192211139       -4.2223011927       -3.5402907737  MEMB      107             0.0000000000
     12428       107  SAPC      H11X          -13.8269985874       -4.2579214348       -4.0168800114  MEMB      107             0.0000000000
     12429       107  SAPC      H11Y          -12.3905005018       -3.2141891590       -3.7247684001  MEMB      107             0.0000000000
     12430       107  SAPC      C312          -13.0654050704       -4.4049737218       -2.0318995519  MEMB      107             0.0000000000
     12431       107  SAPC      H12X          -13.7850203405       -5.2482261537       -1.9215318379  MEMB      107             0.0000000000
     12432       107  SAPC      H12Y          -13.5869253866       -3.5045106228       -1.6382230153  MEMB      107             0.0000000000
     12433       107  SAPC      C313          -11.8522990278       -4.7186704349       -1.1378993267  MEMB      107             0.0000000000
     12434       107  SAPC      H13X          -11.2345582626       -5.5247848761       -1.5848069532  MEMB      107             0.0000000000
     12435       107  SAPC      H13Y          -12.3151563688       -5.1208590759       -0.2048808563  MEMB      107             0.0000000000
     12436       107  SAPC      C314          -11.0093388948       -3.5268587319       -0.6383792048  MEMB      107             0.0000000000
     12437       107  SAPC      H14X          -10.7433087587       -3.7166859351        0.4283279610  MEMB      107             0.0000000000
     12438       107  SAPC      H14Y          -11.6294034093       -2.6032407342       -0.6640470397  MEMB      107             0.0000000000
     12439       107  SAPC      C315           -9.6993926771       -3.2713109298       -1.3967551373  MEMB      107             0.0000000000
     12440       107  SAPC      H15X           -9.1746617988       -2.3973948476       -0.9489888384  MEMB      107             0.0000000000
     12441       107  SAPC      H15Y           -9.9876802177       -2.9894604156       -2.4330636073  MEMB      107             0.0000000000
     12442       107  SAPC      C316           -8.6923636192       -4.4366465912       -1.4366296950  MEMB      107             0.0000000000
     12443       107  SAPC      H16X           -9.1965715074       -5.4170659439       -1.3224626412  MEMB      107             0.0000000000
     12444       107  SAPC      H16Y           -7.9707016342       -4.3361990868       -0.5925211877  MEMB      107             0.0000000000
     12445       107  SAPC      C317           -7.9136854873       -4.4580045257       -2.7546215923  MEMB      107             0.0000000000
     12446       107  SAPC      H17X           -8.5789648979       -4.8332682687       -3.5658585914  MEMB      107             0.0000000000
     12447       107  SAPC      H17Y           -7.0738102311       -5.1761681024       -2.6651049242  MEMB      107             0.0000000000
     12448       107  SAPC      C318           -7.3636002721       -3.0867738878       -3.1280867681  MEMB      107             0.0000000000
     12449       107  SAPC      H18X           -6.6466168308       -2.7275379423       -2.3672477632  MEMB      107             0.0000000000
     12450       107  SAPC      H18Y           -8.1582704380       -2.3223628147       -3.2451174461  MEMB      107             0.0000000000
     12451       107  SAPC      H18Z           -6.8265452037       -3.1225012961       -4.0920588086  MEMB      107             0.0000000000
     12452       108  OSM       N              -7.4085772626       -8.9137606987      -22.6900167982  MEMB      108             0.0000000000
     12453       108  OSM       C15            -7.0527935905       -8.2433251773      -23.9827085025  MEMB      108             0.0000000000
     12454       108  OSM       H15A           -6.5000520096       -7.3295811647      -23.7471613694  MEMB      108             0.0000000000
     12455       108  OSM       H15B           -7.9515963700       -7.9501214508      -24.5180015414  MEMB      108             0.0000000000
     12456       108  OSM       H15C           -6.4123611594       -8.8551850277      -24.6104617651  MEMB      108             0.0000000000
     12457       108  OSM       C14            -6.1337118372       -9.0427260180      -21.9245927454  MEMB      108             0.0000000000
     12458       108  OSM       H14A           -5.7669320458       -8.0301227760      -21.7010243064  MEMB      108             0.0000000000
     12459       108  OSM       H14B           -5.3518959308       -9.4918498743      -22.5387603554  MEMB      108             0.0000000000
     12460       108  OSM       H14C           -6.2698718488       -9.5697313382      -20.9953352840  MEMB      108             0.0000000000
     12461       108  OSM       C13            -8.2693930825       -7.9467579897      -21.9448568573  MEMB      108             0.0000000000
     12462       108  OSM       H13A           -7.7695445633       -6.9857730620      -21.8406595988  MEMB      108             0.0000000000
     12463       108  OSM       H13B           -8.4463667632       -8.3364428920      -20.9488635817  MEMB      108             0.0000000000
     12464       108  OSM       H13C           -9.2315976225       -7.8249419981      -22.4413484352  MEMB      108             0.0000000000
     12465       108  OSM       C12            -8.1381846277      -10.2383767743      -22.9088999978  MEMB      108             0.0000000000
     12466       108  OSM       H12A           -7.5714099488      -10.8387978499      -23.6178085046  MEMB      108             0.0000000000
     12467       108  OSM       H12B           -9.0950825146      -10.0136846260      -23.3656170654  MEMB      108             0.0000000000
     12468       108  OSM       C11            -8.4522642550      -11.1764502091      -21.6981123200  MEMB      108             0.0000000000
     12469       108  OSM       H11A           -7.4666488643      -11.4564594295      -21.2530054372  MEMB      108             0.0000000000
     12470       108  OSM       H11B           -8.9041951982      -12.1049176512      -22.1208591949  MEMB      108             0.0000000000
     12471       108  OSM       P              -9.3385295663      -11.2242719299      -19.2499694848  MEMB      108             0.0000000000
     12472       108  OSM       O13           -10.1062196865      -10.3222628319      -18.3748177711  MEMB      108             0.0000000000
     12473       108  OSM       O14            -9.7802084407      -12.6371362853      -19.2748859342  MEMB      108             0.0000000000
     12474       108  OSM       O11            -7.7870795453      -11.1379045653      -18.9116951342  MEMB      108             0.0000000000
     12475       108  OSM       O12            -9.3722669808      -10.6240323721      -20.7394839254  MEMB      108             0.0000000000
     12476       108  OSM       C1S            -7.2233954624      -12.1045976842      -18.0144726357  MEMB      108             0.0000000000
     12477       108  OSM       H1S            -6.2263243764      -12.4087423772      -18.4007131004  MEMB      108             0.0000000000
     12478       108  OSM       H1T            -7.8077690040      -13.0529470997      -17.9275187120  MEMB      108             0.0000000000
     12479       108  OSM       NF             -8.2268871973      -11.5060732794      -15.8362245772  MEMB      108             0.0000000000
     12480       108  OSM       HNF            -8.8077952066      -10.7050012247      -15.9556465264  MEMB      108             0.0000000000
     12481       108  OSM       C2S            -6.9910067698      -11.5317195040      -16.5867716967  MEMB      108             0.0000000000
     12482       108  OSM       H2S            -6.2784963925      -12.2297146647      -16.0863034755  MEMB      108             0.0000000000
     12483       108  OSM       C3S            -6.3571331163      -10.1262568896      -16.6301726881  MEMB      108             0.0000000000
     12484       108  OSM       H3S            -7.1408157816       -9.3768736704      -16.8852947989  MEMB      108             0.0000000000
     12485       108  OSM       O3             -5.3506615010       -9.9420389585      -17.6316730260  MEMB      108             0.0000000000
     12486       108  OSM       HO3            -5.8456954670      -10.0903782741      -18.4427788540  MEMB      108             0.0000000000
     12487       108  OSM       C4S            -5.8843948600       -9.8460055865      -15.2314914548  MEMB      108             0.0000000000
     12488       108  OSM       H4S            -6.5155874939       -9.1423674534      -14.6729334219  MEMB      108             0.0000000000
     12489       108  OSM       C5S            -4.7823281055      -10.3623540673      -14.6506317027  MEMB      108             0.0000000000
     12490       108  OSM       H5S            -4.1293668755      -11.0293912409      -15.2348495854  MEMB      108             0.0000000000
     12491       108  OSM       C6S            -4.3347471527      -10.0880861798      -13.2407124281  MEMB      108             0.0000000000
     12492       108  OSM       H6S            -3.6076995879       -9.2480049629      -13.2384252252  MEMB      108             0.0000000000
     12493       108  OSM       H6T            -3.7943953452      -10.9731693917      -12.8377135199  MEMB      108             0.0000000000
     12494       108  OSM       C7S            -5.4982418070       -9.7813848102      -12.2711162371  MEMB      108             0.0000000000
     12495       108  OSM       H7S            -6.0307914812       -8.8801617316      -12.6363908068  MEMB      108             0.0000000000
     12496       108  OSM       H7T            -5.0779774326       -9.5178342413      -11.2752896671  MEMB      108             0.0000000000
     12497       108  OSM       C8S            -6.4864042954      -10.9359025331      -12.0403023244  MEMB      108             0.0000000000
     12498       108  OSM       H8S            -6.2289944656      -11.4311382767      -11.0762527711  MEMB      108             0.0000000000
     12499       108  OSM       H8T            -6.3688961684      -11.7097342434      -12.8332288341  MEMB      108             0.0000000000
     12500       108  OSM       C9S            -7.9719099176      -10.5240850316      -12.0109119627  MEMB      108             0.0000000000
     12501       108  OSM       H9S            -8.4988725888      -11.2985664671      -11.4219947516  MEMB      108             0.0000000000
     12502       108  OSM       H9T            -8.3785022644      -10.5593386154      -13.0470404336  MEMB      108             0.0000000000
     12503       108  OSM       C10S           -8.3368449568       -9.1671163234      -11.3868357608  MEMB      108             0.0000000000
     12504       108  OSM       H10S           -9.4488225012       -9.0812063872      -11.3640640954  MEMB      108             0.0000000000
     12505       108  OSM       H10T           -7.9701179653       -8.3485681239      -12.0421140945  MEMB      108             0.0000000000
     12506       108  OSM       C11S           -7.8075354808       -8.9542555708       -9.9601668516  MEMB      108             0.0000000000
     12507       108  OSM       H11S           -7.9284983176       -7.8754108480       -9.7081227593  MEMB      108             0.0000000000
     12508       108  OSM       H11T           -6.7267015610       -9.1958848436       -9.8982075061  MEMB      108             0.0000000000
     12509       108  OSM       C12S           -8.5608472423       -9.7801698059       -8.9133513643  MEMB      108             0.0000000000
     12510       108  OSM       H12S           -8.3771288010      -10.8661384687       -9.0714713370  MEMB      108             0.0000000000
     12511       108  OSM       H12T           -9.6510756736       -9.5977931310       -9.0565447988  MEMB      108             0.0000000000
     12512       108  OSM       C13S           -8.1835035705       -9.3883629874       -7.4789944906  MEMB      108             0.0000000000
     12513       108  OSM       H13S           -8.1937180359       -8.2770213324       -7.4066394822  MEMB      108             0.0000000000
     12514       108  OSM       H13T           -7.1556271399       -9.7413716542       -7.2452655753  MEMB      108             0.0000000000
     12515       108  OSM       C14S           -9.1840098834       -9.9495745930       -6.4663595820  MEMB      108             0.0000000000
     12516       108  OSM       H14S           -9.0971949352      -11.0568751096       -6.4067879223  MEMB      108             0.0000000000
     12517       108  OSM       H14T          -10.2078229949       -9.7194569404       -6.8446689603  MEMB      108             0.0000000000
     12518       108  OSM       C15S           -9.0584772225       -9.3532409307       -5.0603940377  MEMB      108             0.0000000000
     12519       108  OSM       H15S           -8.7264948064       -8.2927914231       -5.1101440401  MEMB      108             0.0000000000
     12520       108  OSM       H15T           -8.2998316598       -9.9319313960       -4.4854882267  MEMB      108             0.0000000000
     12521       108  OSM       C16S          -10.4095647270       -9.4183355644       -4.3483400982  MEMB      108             0.0000000000
     12522       108  OSM       H16S          -10.8307697312      -10.4412691315       -4.4938323030  MEMB      108             0.0000000000
     12523       108  OSM       H16T          -11.1177075532       -8.6950504401       -4.8139911473  MEMB      108             0.0000000000
     12524       108  OSM       C17S          -10.3406693269       -9.1539427158       -2.8493397614  MEMB      108             0.0000000000
     12525       108  OSM       H17S           -9.9943534650       -8.1116575150       -2.6592796754  MEMB      108             0.0000000000
     12526       108  OSM       H17T           -9.6149764048       -9.8527305487       -2.3769135893  MEMB      108             0.0000000000
     12527       108  OSM       C18S          -11.7143208428       -9.3481578876       -2.2312854988  MEMB      108             0.0000000000
     12528       108  OSM       H18S          -12.2604606450       -8.3804371209       -2.2784949021  MEMB      108             0.0000000000
     12529       108  OSM       H18T          -11.6674356681       -9.6770567957       -1.1755839154  MEMB      108             0.0000000000
     12530       108  OSM       H18U          -12.2905163886      -10.1132469289       -2.7943385824  MEMB      108             0.0000000000
     12531       108  OSM       C1F            -8.7224713697      -12.6243497602      -15.3391244004  MEMB      108             0.0000000000
     12532       108  OSM       OF             -8.0792286359      -13.6674362164      -15.3601815405  MEMB      108             0.0000000000
     12533       108  OSM       C2F           -10.1086188178      -12.5221778045      -14.8026659939  MEMB      108             0.0000000000
     12534       108  OSM       H2F           -10.7947747447      -13.1098498350      -15.4490667608  MEMB      108             0.0000000000
     12535       108  OSM       H2G           -10.4275899189      -11.4548323340      -14.8319646293  MEMB      108             0.0000000000
     12536       108  OSM       C3F           -10.1653231742      -13.0231101298      -13.3493525843  MEMB      108             0.0000000000
     12537       108  OSM       H3F            -9.2588182858      -12.7136922929      -12.7896516034  MEMB      108             0.0000000000
     12538       108  OSM       H3G           -10.1592876370      -14.1313901629      -13.3531277658  MEMB      108             0.0000000000
     12539       108  OSM       C4F           -11.4079931743      -12.5040534904      -12.6175834450  MEMB      108             0.0000000000
     12540       108  OSM       H4F           -12.2992407634      -12.7332986924      -13.2463059955  MEMB      108             0.0000000000
     12541       108  OSM       H4G           -11.3458285684      -11.3997997128      -12.4911746831  MEMB      108             0.0000000000
     12542       108  OSM       C5F           -11.5962829185      -13.1778801723      -11.2596203003  MEMB      108             0.0000000000
     12543       108  OSM       H5F           -11.5104556450      -14.2749990954      -11.4232624088  MEMB      108             0.0000000000
     12544       108  OSM       H5G           -12.6223473524      -12.9812564637      -10.8751976913  MEMB      108             0.0000000000
     12545       108  OSM       C6F           -10.5836331335      -12.7656190069      -10.1812973980  MEMB      108             0.0000000000
     12546       108  OSM       H6F           -10.8420313372      -11.7596562499       -9.7850413314  MEMB      108             0.0000000000
     12547       108  OSM       H6G            -9.5543539819      -12.7335545245      -10.5903322003  MEMB      108             0.0000000000
     12548       108  OSM       C7F           -10.5790222315      -13.8153219902       -9.0737045972  MEMB      108             0.0000000000
     12549       108  OSM       H7F            -9.8238734777      -14.5922248297       -9.3411167683  MEMB      108             0.0000000000
     12550       108  OSM       H7G           -11.5923101217      -14.2872290459       -9.1026386270  MEMB      108             0.0000000000
     12551       108  OSM       C8F           -10.2895690992      -13.3098626621       -7.6613950139  MEMB      108             0.0000000000
     12552       108  OSM       H8F           -10.9293931724      -12.4313061904       -7.4270201901  MEMB      108             0.0000000000
     12553       108  OSM       H8G            -9.2262216502      -12.9875274620       -7.5849725395  MEMB      108             0.0000000000
     12554       108  OSM       C9F           -10.6397767558      -14.4925582285       -6.7947082105  MEMB      108             0.0000000000
     12555       108  OSM       H9F           -11.7135722598      -14.7350636736       -6.7826968616  MEMB      108             0.0000000000
     12556       108  OSM       C10F           -9.8050832769      -15.2706129380       -6.0939760835  MEMB      108             0.0000000000
     12557       108  OSM       H10F          -10.2265916514      -16.1270823230       -5.5466924054  MEMB      108             0.0000000000
     12558       108  OSM       C11F           -8.3083689086      -15.1421973267       -5.9951080147  MEMB      108             0.0000000000
     12559       108  OSM       H11F           -7.8755404872      -14.5241273072       -6.8143437192  MEMB      108             0.0000000000
     12560       108  OSM       H11G           -7.8135309122      -16.1374629353       -6.0356862781  MEMB      108             0.0000000000
     12561       108  OSM       C12F           -7.9936733665      -14.4663359198       -4.6542180222  MEMB      108             0.0000000000
     12562       108  OSM       H12F           -8.4778076926      -13.4607128487       -4.6275223914  MEMB      108             0.0000000000
     12563       108  OSM       H12G           -6.8947397089      -14.2955725267       -4.5878039242  MEMB      108             0.0000000000
     12564       108  OSM       C13F           -8.4513513177      -15.2633182375       -3.4191880097  MEMB      108             0.0000000000
     12565       108  OSM       H13F           -7.7545426298      -16.1177578539       -3.2662780511  MEMB      108             0.0000000000
     12566       108  OSM       H13G           -9.4713774889      -15.6843015833       -3.5505795266  MEMB      108             0.0000000000
     12567       108  OSM       C14F           -8.4814291651      -14.3877123110       -2.1659388578  MEMB      108             0.0000000000
     12568       108  OSM       H14F           -8.7616110706      -15.0208593952       -1.2931845638  MEMB      108             0.0000000000
     12569       108  OSM       H14G           -9.2617125415      -13.6002193638       -2.2753290866  MEMB      108             0.0000000000
     12570       108  OSM       C15F           -7.1207554913      -13.7306830160       -1.9195992786  MEMB      108             0.0000000000
     12571       108  OSM       H15F           -6.8409645309      -13.0381872723       -2.7411633426  MEMB      108             0.0000000000
     12572       108  OSM       H15G           -6.3636738520      -14.5491316437       -1.8859067088  MEMB      108             0.0000000000
     12573       108  OSM       C16F           -7.0679030592      -12.9867152697       -0.5933965585  MEMB      108             0.0000000000
     12574       108  OSM       H16F           -6.0060697292      -12.9414875934       -0.2590898997  MEMB      108             0.0000000000
     12575       108  OSM       H16G           -7.6536478581      -13.5877148321        0.1407389931  MEMB      108             0.0000000000
     12576       108  OSM       C17F           -7.6179098477      -11.5590158592       -0.6040349771  MEMB      108             0.0000000000
     12577       108  OSM       H17F           -7.8465034987      -11.3267422291        0.4592984471  MEMB      108             0.0000000000
     12578       108  OSM       H17G           -8.5726382872      -11.5141472984       -1.1727187392  MEMB      108             0.0000000000
     12579       108  OSM       C18F           -6.6321474346      -10.5051318598       -1.1199259646  MEMB      108             0.0000000000
     12580       108  OSM       H18F           -6.2957198096      -10.7547612298       -2.1476005787  MEMB      108             0.0000000000
     12581       108  OSM       H18G           -5.7446234033      -10.4447378551       -0.4533365507  MEMB      108             0.0000000000
     12582       108  OSM       H18H           -7.1062861255       -9.5029322630       -1.1478648621  MEMB      108             0.0000000000
     12583       109  SAPI      C12            12.7942812561       10.6680509086      -24.4538986044  MEMB      109             0.0000000000
     12584       109  SAPI      H2             12.7598673506       11.7811079734      -24.3281265348  MEMB      109             0.0000000000
     12585       109  SAPI      O2             11.5464010868       10.2236686764      -24.9530998131  MEMB      109             0.0000000000
     12586       109  SAPI      HO2            11.0313445415       10.1984838838      -24.1325389033  MEMB      109             0.0000000000
     12587       109  SAPI      C13            13.9285305522       10.3304305506      -25.3693016089  MEMB      109             0.0000000000
     12588       109  SAPI      H3             14.8821109592       10.7240389577      -24.9380221951  MEMB      109             0.0000000000
     12589       109  SAPI      O3             13.7296130820       10.9774352898      -26.6207525296  MEMB      109             0.0000000000
     12590       109  SAPI      HO3            12.8261065430       10.7765391039      -26.8983652471  MEMB      109             0.0000000000
     12591       109  SAPI      C14            14.0117980850        8.8342136126      -25.5396789411  MEMB      109             0.0000000000
     12592       109  SAPI      H4             13.1256286743        8.4369780879      -26.0883794805  MEMB      109             0.0000000000
     12593       109  SAPI      O4             15.1871317763        8.6108464056      -26.3205469414  MEMB      109             0.0000000000
     12594       109  SAPI      HO4            15.6686815021        9.4657137163      -26.3335185943  MEMB      109             0.0000000000
     12595       109  SAPI      C15            14.1481593017        8.1421428002      -24.1922915549  MEMB      109             0.0000000000
     12596       109  SAPI      H5             15.1311431657        8.3920582926      -23.7293611601  MEMB      109             0.0000000000
     12597       109  SAPI      O5             14.0911756454        6.7327271019      -24.4063218685  MEMB      109             0.0000000000
     12598       109  SAPI      HO5            13.3958401909        6.5262678679      -25.0527650425  MEMB      109             0.0000000000
     12599       109  SAPI      C16            13.0194933074        8.5107092045      -23.2411333598  MEMB      109             0.0000000000
     12600       109  SAPI      H6             12.0454762975        8.1333582957      -23.6173594954  MEMB      109             0.0000000000
     12601       109  SAPI      O6             13.2194612390        7.9431372798      -21.9473610468  MEMB      109             0.0000000000
     12602       109  SAPI      HO6            13.2226257172        8.6433930238      -21.2677604596  MEMB      109             0.0000000000
     12603       109  SAPI      C11            13.0127999538       10.0132864890      -23.1181772728  MEMB      109             0.0000000000
     12604       109  SAPI      H1             14.0639328411       10.2977154512      -22.8132509080  MEMB      109             0.0000000000
     12605       109  SAPI      P              12.5412302954       11.2559078698      -20.9232197484  MEMB      109             0.0000000000
     12606       109  SAPI      O13            13.3582882966       12.3699778010      -21.4451189578  MEMB      109             0.0000000000
     12607       109  SAPI      O14            13.2901726637       10.2220177889      -20.1821539556  MEMB      109             0.0000000000
     12608       109  SAPI      O12            11.9480732944       10.4912164054      -22.2575797031  MEMB      109             0.0000000000
     12609       109  SAPI      O11            11.2908419809       11.7501582317      -20.1382344010  MEMB      109             0.0000000000
     12610       109  SAPI      C1             10.2634206531       10.8872990749      -19.6771730392  MEMB      109             0.0000000000
     12611       109  SAPI      HA              9.3253055139       11.4622980387      -19.8194581975  MEMB      109             0.0000000000
     12612       109  SAPI      HB             10.1686063329        9.9380131018      -20.2546404894  MEMB      109             0.0000000000
     12613       109  SAPI      C2             10.3508247267       10.6119653322      -18.1509224601  MEMB      109             0.0000000000
     12614       109  SAPI      HS              9.3102168834       10.6677959941      -17.7410839486  MEMB      109             0.0000000000
     12615       109  SAPI      O21            11.2147924766       11.5523866016      -17.4917834026  MEMB      109             0.0000000000
     12616       109  SAPI      C21            10.6347580339       12.7176816452      -17.3416201526  MEMB      109             0.0000000000
     12617       109  SAPI      O22             9.4927177818       13.0103858893      -17.6564080617  MEMB      109             0.0000000000
     12618       109  SAPI      C22            11.5946742451       13.6537404789      -16.6020275331  MEMB      109             0.0000000000
     12619       109  SAPI      H2R            12.4520372437       13.0510907335      -16.2365800675  MEMB      109             0.0000000000
     12620       109  SAPI      H2S            11.9695794477       14.3995698057      -17.3311729863  MEMB      109             0.0000000000
     12621       109  SAPI      C3             10.8481945304        9.2081585561      -17.7742550228  MEMB      109             0.0000000000
     12622       109  SAPI      HX             11.7834631823        8.9701118422      -18.3240988468  MEMB      109             0.0000000000
     12623       109  SAPI      HY             10.0517104481        8.4897673114      -18.0804975400  MEMB      109             0.0000000000
     12624       109  SAPI      O31            11.0732151426        9.2143585436      -16.3502514896  MEMB      109             0.0000000000
     12625       109  SAPI      C31            10.9199532620        8.0569333523      -15.7601683504  MEMB      109             0.0000000000
     12626       109  SAPI      O32            10.7876573286        6.9825323585      -16.3206184413  MEMB      109             0.0000000000
     12627       109  SAPI      C32            10.7749382491        8.2500851435      -14.2468486685  MEMB      109             0.0000000000
     12628       109  SAPI      H2X            10.1979680548        7.3783444828      -13.8745646673  MEMB      109             0.0000000000
     12629       109  SAPI      H2Y            10.1744705257        9.1650017029      -14.0593910665  MEMB      109             0.0000000000
     12630       109  SAPI      C23            10.9311562509       14.3705272005      -15.3973024819  MEMB      109             0.0000000000
     12631       109  SAPI      H3R            10.1294902032       13.7368061759      -14.9518478753  MEMB      109             0.0000000000
     12632       109  SAPI      H3S            10.4458623768       15.3013425501      -15.7649159164  MEMB      109             0.0000000000
     12633       109  SAPI      C24            11.9569970030       14.6662805223      -14.2927920956  MEMB      109             0.0000000000
     12634       109  SAPI      H4R            12.9164301227       14.9413660934      -14.7834764767  MEMB      109             0.0000000000
     12635       109  SAPI      H4S            12.1574496474       13.7078173382      -13.7577183279  MEMB      109             0.0000000000
     12636       109  SAPI      C25            11.5434573121       15.7728305478      -13.3517390469  MEMB      109             0.0000000000
     12637       109  SAPI      H5R            11.4216243104       16.7594139110      -13.8230183782  MEMB      109             0.0000000000
     12638       109  SAPI      C26            11.2761952636       15.6583657756      -12.0371775066  MEMB      109             0.0000000000
     12639       109  SAPI      H6R            11.0000104883       16.5595303296      -11.4674484337  MEMB      109             0.0000000000
     12640       109  SAPI      C27            11.3294979819       14.3819340918      -11.2386687268  MEMB      109             0.0000000000
     12641       109  SAPI      H7R            11.4635632769       14.6002365562      -10.1542307598  MEMB      109             0.0000000000
     12642       109  SAPI      H7S            12.2080579440       13.7614777962      -11.5350405603  MEMB      109             0.0000000000
     12643       109  SAPI      C28            10.0468828728       13.6257364998      -11.4965913291  MEMB      109             0.0000000000
     12644       109  SAPI      H8R             9.2773506322       14.1411633932      -12.0961127424  MEMB      109             0.0000000000
     12645       109  SAPI      C29             9.7458228612       12.4085423410      -11.0342285188  MEMB      109             0.0000000000
     12646       109  SAPI      H9R             8.7724949545       11.9831722829      -11.3244228796  MEMB      109             0.0000000000
     12647       109  SAPI      C210           10.6230475387       11.5492893977      -10.1591665426  MEMB      109             0.0000000000
     12648       109  SAPI      H10R           11.1286777770       12.1731929189       -9.3873030695  MEMB      109             0.0000000000
     12649       109  SAPI      H10S           11.4304426100       11.1070842049      -10.7784784726  MEMB      109             0.0000000000
     12650       109  SAPI      C211            9.8143392138       10.4465966018       -9.5209214532  MEMB      109             0.0000000000
     12651       109  SAPI      H11R            8.9447347433       10.0955705069      -10.0997560080  MEMB      109             0.0000000000
     12652       109  SAPI      C212           10.0517380145        9.8537872001       -8.3409855811  MEMB      109             0.0000000000
     12653       109  SAPI      H12R            9.3170519512        9.1319094209       -7.9673772525  MEMB      109             0.0000000000
     12654       109  SAPI      C213           11.1632200093       10.1232708790       -7.3691598336  MEMB      109             0.0000000000
     12655       109  SAPI      H13R           10.7325548203       10.5787616597       -6.4508793356  MEMB      109             0.0000000000
     12656       109  SAPI      H13S           11.8915830453       10.8623552389       -7.7617490207  MEMB      109             0.0000000000
     12657       109  SAPI      C214           11.8449458615        8.8055657523       -7.0900500534  MEMB      109             0.0000000000
     12658       109  SAPI      H14R           11.8971918584        8.1021191845       -7.9385929859  MEMB      109             0.0000000000
     12659       109  SAPI      C215           12.4114126645        8.4466957892       -5.9289899798  MEMB      109             0.0000000000
     12660       109  SAPI      H15R           12.8981843177        7.4628853573       -5.8527253697  MEMB      109             0.0000000000
     12661       109  SAPI      C216           12.4806384219        9.2891170585       -4.6844786412  MEMB      109             0.0000000000
     12662       109  SAPI      H16R           12.1954012297        8.6948507241       -3.7876379773  MEMB      109             0.0000000000
     12663       109  SAPI      H16S           11.7948657591       10.1642798172       -4.7148780575  MEMB      109             0.0000000000
     12664       109  SAPI      C217           13.9144801769        9.8154104475       -4.5188885038  MEMB      109             0.0000000000
     12665       109  SAPI      H17R           13.8917265166       10.6058110982       -3.7396208541  MEMB      109             0.0000000000
     12666       109  SAPI      H17S           14.2819421000       10.3019519618       -5.4489216776  MEMB      109             0.0000000000
     12667       109  SAPI      C218           14.8921179504        8.7289367329       -4.0595541320  MEMB      109             0.0000000000
     12668       109  SAPI      H18R           15.1127189785        8.0177769016       -4.8865311682  MEMB      109             0.0000000000
     12669       109  SAPI      H18S           14.3929338263        8.1611347770       -3.2466333160  MEMB      109             0.0000000000
     12670       109  SAPI      C219           16.1794003265        9.3193130396       -3.4803470186  MEMB      109             0.0000000000
     12671       109  SAPI      H19R           15.9119373815       10.1292179441       -2.7753746994  MEMB      109             0.0000000000
     12672       109  SAPI      H19S           16.7543941474        9.7947827865       -4.3031445906  MEMB      109             0.0000000000
     12673       109  SAPI      C220           17.0379487978        8.3054250319       -2.7273993260  MEMB      109             0.0000000000
     12674       109  SAPI      H20R           17.0764886182        7.3468296295       -3.2901901771  MEMB      109             0.0000000000
     12675       109  SAPI      H20S           16.6502685269        8.0831101150       -1.7234866942  MEMB      109             0.0000000000
     12676       109  SAPI      H20T           18.0715478736        8.6754527731       -2.5728678256  MEMB      109             0.0000000000
     12677       109  SAPI      C33            12.1143876770        8.3106840688      -13.4798914135  MEMB      109             0.0000000000
     12678       109  SAPI      H3X            12.6610843792        9.2232640884      -13.8062409782  MEMB      109             0.0000000000
     12679       109  SAPI      H3Y            12.7383285993        7.4232368693      -13.7266392325  MEMB      109             0.0000000000
     12680       109  SAPI      C34            11.8966571205        8.3546166035      -11.9576775178  MEMB      109             0.0000000000
     12681       109  SAPI      H4X            11.3952431995        7.4182091496      -11.6218460829  MEMB      109             0.0000000000
     12682       109  SAPI      H4Y            11.1998825386        9.1924503397      -11.7357264433  MEMB      109             0.0000000000
     12683       109  SAPI      C35            13.1807873920        8.5687680469      -11.1339221495  MEMB      109             0.0000000000
     12684       109  SAPI      H5X            13.8248843186        7.6639937443      -11.2067490621  MEMB      109             0.0000000000
     12685       109  SAPI      H5Y            12.8860740520        8.6904943000      -10.0672967466  MEMB      109             0.0000000000
     12686       109  SAPI      C36            13.9991351209        9.7953155705      -11.5683801801  MEMB      109             0.0000000000
     12687       109  SAPI      H6X            13.3282315269       10.5889047697      -11.9659664549  MEMB      109             0.0000000000
     12688       109  SAPI      H6Y            14.6689473380        9.4785746103      -12.4012482657  MEMB      109             0.0000000000
     12689       109  SAPI      C37            14.8648276668       10.3941291808      -10.4459362826  MEMB      109             0.0000000000
     12690       109  SAPI      H7X            15.8212744994       10.7264311567      -10.9098037689  MEMB      109             0.0000000000
     12691       109  SAPI      H7Y            15.1055241681        9.6122058572       -9.6932470733  MEMB      109             0.0000000000
     12692       109  SAPI      C38            14.2417349869       11.6176477470       -9.7474617026  MEMB      109             0.0000000000
     12693       109  SAPI      H8X            13.3637251992       11.2930857743       -9.1548004741  MEMB      109             0.0000000000
     12694       109  SAPI      H8Y            13.8823723176       12.3310923244      -10.5223114298  MEMB      109             0.0000000000
     12695       109  SAPI      C39            15.2544723755       12.3415592055       -8.8450437684  MEMB      109             0.0000000000
     12696       109  SAPI      H9X            16.1201932238       12.6125308299       -9.4932515093  MEMB      109             0.0000000000
     12697       109  SAPI      H9Y            15.6198819788       11.6482948692       -8.0578680954  MEMB      109             0.0000000000
     12698       109  SAPI      C310           14.7706928226       13.6431209237       -8.1814937008  MEMB      109             0.0000000000
     12699       109  SAPI      H10X           14.0355336221       14.1749172278       -8.8242347517  MEMB      109             0.0000000000
     12700       109  SAPI      H10Y           15.6700973915       14.2939451266       -8.0945123109  MEMB      109             0.0000000000
     12701       109  SAPI      C311           14.2276359181       13.4667532013       -6.7534551285  MEMB      109             0.0000000000
     12702       109  SAPI      H11X           14.8003693619       12.6686180079       -6.2311999205  MEMB      109             0.0000000000
     12703       109  SAPI      H11Y           13.1650386453       13.1409289805       -6.8047401312  MEMB      109             0.0000000000
     12704       109  SAPI      C312           14.3424704914       14.7503582079       -5.9115349227  MEMB      109             0.0000000000
     12705       109  SAPI      H12X           13.8974440946       15.5885535072       -6.4976315942  MEMB      109             0.0000000000
     12706       109  SAPI      H12Y           15.4113927643       14.9954577098       -5.7310556641  MEMB      109             0.0000000000
     12707       109  SAPI      C313           13.5941450504       14.6671710752       -4.5728610448  MEMB      109             0.0000000000
     12708       109  SAPI      H13X           12.5888982901       14.2338645471       -4.7773769552  MEMB      109             0.0000000000
     12709       109  SAPI      H13Y           13.4391044696       15.6966549247       -4.1745355966  MEMB      109             0.0000000000
     12710       109  SAPI      C314           14.2634592109       13.8273264865       -3.4701172957  MEMB      109             0.0000000000
     12711       109  SAPI      H14X           15.0827401446       14.4183279831       -3.0023326465  MEMB      109             0.0000000000
     12712       109  SAPI      H14Y           14.7190919237       12.9076601110       -3.8974226609  MEMB      109             0.0000000000
     12713       109  SAPI      C315           13.2133465744       13.4314826032       -2.4159998058  MEMB      109             0.0000000000
     12714       109  SAPI      H15X           12.5610568230       12.6352060686       -2.8372357149  MEMB      109             0.0000000000
     12715       109  SAPI      H15Y           12.5746556261       14.3240736659       -2.2232398611  MEMB      109             0.0000000000
     12716       109  SAPI      C316           13.7653813321       12.9796998334       -1.0589189422  MEMB      109             0.0000000000
     12717       109  SAPI      H16X           12.9292517520       12.9278962117       -0.3266472180  MEMB      109             0.0000000000
     12718       109  SAPI      H16Y           14.4654827310       13.7650504511       -0.7107076267  MEMB      109             0.0000000000
     12719       109  SAPI      C317           14.4475045400       11.6101503388       -1.0842320134  MEMB      109             0.0000000000
     12720       109  SAPI      H17X           15.4368870147       11.7306902404       -1.5756444220  MEMB      109             0.0000000000
     12721       109  SAPI      H17Y           13.8420898526       10.9151256760       -1.7079135085  MEMB      109             0.0000000000
     12722       109  SAPI      C318           14.6109521279       10.9582838120        0.2909387390  MEMB      109             0.0000000000
     12723       109  SAPI      H18X           13.6297879616       10.5916635797        0.6601449661  MEMB      109             0.0000000000
     12724       109  SAPI      H18Y           15.0172829686       11.6481065860        1.0522053164  MEMB      109             0.0000000000
     12725       109  SAPI      H18Z           15.3159051063       10.1004116416        0.2143381517  MEMB      109             0.0000000000
     12726       110  OSM       N              14.0028719878        4.2245540754      -22.0325504675  MEMB      110             0.0000000000
     12727       110  OSM       C15            12.6629094595        4.8899134929      -21.9737234077  MEMB      110             0.0000000000
     12728       110  OSM       H15A           12.4800583646        5.3419199677      -21.0023041441  MEMB      110             0.0000000000
     12729       110  OSM       H15B           11.8567905796        4.2166733459      -22.2314020062  MEMB      110             0.0000000000
     12730       110  OSM       H15C           12.6714693663        5.7327874078      -22.6655749186  MEMB      110             0.0000000000
     12731       110  OSM       C14            14.0583300681        3.0899783032      -21.0685757647  MEMB      110             0.0000000000
     12732       110  OSM       H14A           13.7600404667        3.4135615258      -20.0815176755  MEMB      110             0.0000000000
     12733       110  OSM       H14B           15.0957524528        2.7548801482      -20.9788722012  MEMB      110             0.0000000000
     12734       110  OSM       H14C           13.4494336525        2.2557371844      -21.3871534389  MEMB      110             0.0000000000
     12735       110  OSM       C13            14.2022495197        3.6678853409      -23.4090162720  MEMB      110             0.0000000000
     12736       110  OSM       H13A           13.4816017868        2.8873613685      -23.6234601211  MEMB      110             0.0000000000
     12737       110  OSM       H13B           15.1851722398        3.2130332646      -23.4757653282  MEMB      110             0.0000000000
     12738       110  OSM       H13C           14.1127372143        4.4413502181      -24.1665707255  MEMB      110             0.0000000000
     12739       110  OSM       C12            15.0917153356        5.2644241862      -21.7543551988  MEMB      110             0.0000000000
     12740       110  OSM       H12A           14.9146321002        5.7540472999      -20.8019396584  MEMB      110             0.0000000000
     12741       110  OSM       H12B           14.9749822757        6.0407821744      -22.5140729887  MEMB      110             0.0000000000
     12742       110  OSM       C11            16.5846180716        4.8234159697      -21.7813023745  MEMB      110             0.0000000000
     12743       110  OSM       H11A           17.2024005979        5.7558757734      -21.7897283366  MEMB      110             0.0000000000
     12744       110  OSM       H11B           16.7877285272        4.3353108939      -22.7592357316  MEMB      110             0.0000000000
     12745       110  OSM       P              17.7340501708        4.4725406749      -19.4414484094  MEMB      110             0.0000000000
     12746       110  OSM       O13            18.2761467941        3.3066763811      -18.7182920238  MEMB      110             0.0000000000
     12747       110  OSM       O14            18.7464768069        5.4586053695      -19.8543738920  MEMB      110             0.0000000000
     12748       110  OSM       O11            16.6330119483        5.0902256484      -18.4997668191  MEMB      110             0.0000000000
     12749       110  OSM       O12            16.9387705983        3.9310699175      -20.7116634927  MEMB      110             0.0000000000
     12750       110  OSM       C1S            15.3287305531        4.5163012242      -18.4820574680  MEMB      110             0.0000000000
     12751       110  OSM       H1S            15.3232889814        3.4617290094      -18.8386469831  MEMB      110             0.0000000000
     12752       110  OSM       H1T            14.6776981834        5.1019206076      -19.1568816217  MEMB      110             0.0000000000
     12753       110  OSM       NF             14.5844969833        5.8255232001      -16.5257701918  MEMB      110             0.0000000000
     12754       110  OSM       HNF            15.2932643646        6.1462754616      -15.9121933027  MEMB      110             0.0000000000
     12755       110  OSM       C2S            14.7124412678        4.4785723796      -17.0550215045  MEMB      110             0.0000000000
     12756       110  OSM       H2S            13.6939848284        4.0358073319      -17.1273803315  MEMB      110             0.0000000000
     12757       110  OSM       C3S            15.5901036787        3.5621534884      -16.1681809059  MEMB      110             0.0000000000
     12758       110  OSM       H3S            16.6106298485        3.9866680123      -16.0627845650  MEMB      110             0.0000000000
     12759       110  OSM       O3             15.7454145467        2.2701973570      -16.7487314672  MEMB      110             0.0000000000
     12760       110  OSM       HO3            16.4588073993        2.3818565458      -17.3933533483  MEMB      110             0.0000000000
     12761       110  OSM       C4S            14.9893100724        3.3503291263      -14.8119267223  MEMB      110             0.0000000000
     12762       110  OSM       H4S            14.0849521823        2.7297601577      -14.8240461401  MEMB      110             0.0000000000
     12763       110  OSM       C5S            15.4636905824        3.8091080491      -13.6382927575  MEMB      110             0.0000000000
     12764       110  OSM       H5S            16.3868523058        4.4116239720      -13.6128353824  MEMB      110             0.0000000000
     12765       110  OSM       C6S            14.8126500950        3.5428770875      -12.3095974769  MEMB      110             0.0000000000
     12766       110  OSM       H6S            15.5807951009        3.1545763575      -11.6023811086  MEMB      110             0.0000000000
     12767       110  OSM       H6T            14.0472072381        2.7415873840      -12.4046584623  MEMB      110             0.0000000000
     12768       110  OSM       C7S            14.1403771714        4.7670913387      -11.6653680823  MEMB      110             0.0000000000
     12769       110  OSM       H7S            13.2324866715        5.0537008027      -12.2416319298  MEMB      110             0.0000000000
     12770       110  OSM       H7T            14.8448743088        5.6317954909      -11.6899469472  MEMB      110             0.0000000000
     12771       110  OSM       C8S            13.7645962397        4.5227549870      -10.1909552244  MEMB      110             0.0000000000
     12772       110  OSM       H8S            13.3165431873        5.4534117844       -9.7775931801  MEMB      110             0.0000000000
     12773       110  OSM       H8T            14.7054840853        4.3266721886       -9.6290093674  MEMB      110             0.0000000000
     12774       110  OSM       C9S            12.8038170459        3.3451555563       -9.9391176636  MEMB      110             0.0000000000
     12775       110  OSM       H9S            13.1314947964        2.4578901874      -10.5244524054  MEMB      110             0.0000000000
     12776       110  OSM       H9T            11.7844453043        3.6168963979      -10.2887407557  MEMB      110             0.0000000000
     12777       110  OSM       C10S           12.7567101430        2.9010045856       -8.4651885669  MEMB      110             0.0000000000
     12778       110  OSM       H10S           13.7543744066        2.4759811590       -8.2105456228  MEMB      110             0.0000000000
     12779       110  OSM       H10T           12.0154772695        2.0832655303       -8.3440575016  MEMB      110             0.0000000000
     12780       110  OSM       C11S           12.4388212744        4.0257268155       -7.4736574592  MEMB      110             0.0000000000
     12781       110  OSM       H11S           11.4233046899        4.4352347579       -7.6651851747  MEMB      110             0.0000000000
     12782       110  OSM       H11T           13.1686483525        4.8518359718       -7.6358635629  MEMB      110             0.0000000000
     12783       110  OSM       C12S           12.5706583371        3.5798205042       -6.0086581640  MEMB      110             0.0000000000
     12784       110  OSM       H12S           13.3986868027        2.8398559991       -5.9289376603  MEMB      110             0.0000000000
     12785       110  OSM       H12T           11.6384712438        3.0798554751       -5.6678643965  MEMB      110             0.0000000000
     12786       110  OSM       C13S           12.9095284823        4.7696004057       -5.1078216033  MEMB      110             0.0000000000
     12787       110  OSM       H13S           12.0970373868        5.5275260912       -5.1825285647  MEMB      110             0.0000000000
     12788       110  OSM       H13T           13.8452126717        5.2428344971       -5.4898809525  MEMB      110             0.0000000000
     12789       110  OSM       C14S           13.1241629960        4.4185999411       -3.6310746722  MEMB      110             0.0000000000
     12790       110  OSM       H14S           13.8407534131        3.5851309848       -3.5218376931  MEMB      110             0.0000000000
     12791       110  OSM       H14T           12.1799529303        4.0511230216       -3.1814445594  MEMB      110             0.0000000000
     12792       110  OSM       C15S           13.6221732596        5.6565229359       -2.8721530779  MEMB      110             0.0000000000
     12793       110  OSM       H15S           12.8733210832        6.4598305684       -3.0649710438  MEMB      110             0.0000000000
     12794       110  OSM       H15T           14.5928435768        5.9961750280       -3.2947129113  MEMB      110             0.0000000000
     12795       110  OSM       C16S           13.7520629491        5.4520545433       -1.3569987036  MEMB      110             0.0000000000
     12796       110  OSM       H16S           14.7666339522        5.1433884129       -1.0626980213  MEMB      110             0.0000000000
     12797       110  OSM       H16T           13.0820400931        4.6092046577       -1.0993821921  MEMB      110             0.0000000000
     12798       110  OSM       C17S           13.3141260307        6.6710992453       -0.5380305347  MEMB      110             0.0000000000
     12799       110  OSM       H17S           12.8477766996        6.3368757801        0.4155208173  MEMB      110             0.0000000000
     12800       110  OSM       H17T           12.5582411994        7.2335882100       -1.1300453586  MEMB      110             0.0000000000
     12801       110  OSM       C18S           14.3734808474        7.6947382720       -0.2188682350  MEMB      110             0.0000000000
     12802       110  OSM       H18S           14.9100087930        7.9453455952       -1.1416751078  MEMB      110             0.0000000000
     12803       110  OSM       H18T           15.0762594548        7.3879855038        0.5806646171  MEMB      110             0.0000000000
     12804       110  OSM       H18U           13.8465159096        8.6104245153        0.0992599069  MEMB      110             0.0000000000
     12805       110  OSM       C1F            13.8907001898        6.7346560861      -17.2138543007  MEMB      110             0.0000000000
     12806       110  OSM       OF             13.0636156683        6.3675868791      -18.0452097522  MEMB      110             0.0000000000
     12807       110  OSM       C2F            14.1923211893        8.1971736495      -16.9715983235  MEMB      110             0.0000000000
     12808       110  OSM       H2F            13.5077230761        8.5780636728      -16.1876277176  MEMB      110             0.0000000000
     12809       110  OSM       H2G            13.9641921602        8.7522452248      -17.9084042282  MEMB      110             0.0000000000
     12810       110  OSM       C3F            15.6500345807        8.5445252660      -16.5439861353  MEMB      110             0.0000000000
     12811       110  OSM       H3F            15.7278025418        9.6573346985      -16.5612411726  MEMB      110             0.0000000000
     12812       110  OSM       H3G            16.3632220100        8.1507040902      -17.3005757913  MEMB      110             0.0000000000
     12813       110  OSM       C4F            16.0391151367        8.0810331667      -15.1333224785  MEMB      110             0.0000000000
     12814       110  OSM       H4F            16.2361625996        6.9896378737      -15.1351929894  MEMB      110             0.0000000000
     12815       110  OSM       H4G            15.1941753257        8.2779006150      -14.4342105359  MEMB      110             0.0000000000
     12816       110  OSM       C5F            17.3017729519        8.7065585587      -14.5357905732  MEMB      110             0.0000000000
     12817       110  OSM       H5F            17.0668350040        9.7334467821      -14.1725615147  MEMB      110             0.0000000000
     12818       110  OSM       H5G            18.1034265384        8.7910309350      -15.3016033903  MEMB      110             0.0000000000
     12819       110  OSM       C6F            17.7739656406        7.8097798101      -13.3780767061  MEMB      110             0.0000000000
     12820       110  OSM       H6F            18.1668732540        6.8459675813      -13.7634665745  MEMB      110             0.0000000000
     12821       110  OSM       H6G            16.8590934034        7.5931889002      -12.7788028985  MEMB      110             0.0000000000
     12822       110  OSM       C7F            18.8022294082        8.4789492667      -12.4646385610  MEMB      110             0.0000000000
     12823       110  OSM       H7F            18.3621955477        9.4784062289      -12.3015769632  MEMB      110             0.0000000000
     12824       110  OSM       H7G            19.7841113518        8.5893955589      -12.9747886469  MEMB      110             0.0000000000
     12825       110  OSM       C8F            18.9890222527        7.8338536027      -11.0816114913  MEMB      110             0.0000000000
     12826       110  OSM       H8F            19.7389326576        8.3996557322      -10.4975583132  MEMB      110             0.0000000000
     12827       110  OSM       H8G            19.4086547290        6.8146954257      -11.1983438669  MEMB      110             0.0000000000
     12828       110  OSM       C9F            17.6568061195        7.8718589628      -10.3838160311  MEMB      110             0.0000000000
     12829       110  OSM       H9F            17.2055476889        8.8730131866      -10.3028317310  MEMB      110             0.0000000000
     12830       110  OSM       C10F           17.0231508975        6.8395634918       -9.8221676603  MEMB      110             0.0000000000
     12831       110  OSM       H10F           16.0410060151        7.0130747095       -9.3544304989  MEMB      110             0.0000000000
     12832       110  OSM       C11F           17.5115215976        5.4205270136       -9.7539939963  MEMB      110             0.0000000000
     12833       110  OSM       H11F           18.5817207791        5.3034201696      -10.0379229045  MEMB      110             0.0000000000
     12834       110  OSM       H11G           16.9207615035        4.7930630016      -10.4524525825  MEMB      110             0.0000000000
     12835       110  OSM       C12F           17.3436011121        4.9340911723       -8.3037266209  MEMB      110             0.0000000000
     12836       110  OSM       H12F           16.4632017176        5.4158885569       -7.8169133779  MEMB      110             0.0000000000
     12837       110  OSM       H12G           18.2403338914        5.2124842527       -7.7045857485  MEMB      110             0.0000000000
     12838       110  OSM       C13F           17.1188023945        3.4280335854       -8.2145247690  MEMB      110             0.0000000000
     12839       110  OSM       H13F           18.1113692468        2.9331617682       -8.1605470507  MEMB      110             0.0000000000
     12840       110  OSM       H13G           16.6028381143        3.0775773976       -9.1382440946  MEMB      110             0.0000000000
     12841       110  OSM       C14F           16.2436012804        3.0285956249       -7.0210363401  MEMB      110             0.0000000000
     12842       110  OSM       H14F           15.8396659033        2.0031465657       -7.1877709321  MEMB      110             0.0000000000
     12843       110  OSM       H14G           15.3703746737        3.7139628047       -6.9561948457  MEMB      110             0.0000000000
     12844       110  OSM       C15F           17.0218010913        3.0295327653       -5.7069853815  MEMB      110             0.0000000000
     12845       110  OSM       H15F           17.5201208387        4.0108626407       -5.5411606944  MEMB      110             0.0000000000
     12846       110  OSM       H15G           17.8094536785        2.2443746299       -5.7737585537  MEMB      110             0.0000000000
     12847       110  OSM       C16F           16.1437372640        2.7214049392       -4.5002020989  MEMB      110             0.0000000000
     12848       110  OSM       H16F           15.3122788078        2.0333878626       -4.7808757783  MEMB      110             0.0000000000
     12849       110  OSM       H16G           15.7156879582        3.6765236015       -4.1268355357  MEMB      110             0.0000000000
     12850       110  OSM       C17F           16.9556175765        2.0535841458       -3.3995979734  MEMB      110             0.0000000000
     12851       110  OSM       H17F           17.7712789456        2.7287514094       -3.0767950182  MEMB      110             0.0000000000
     12852       110  OSM       H17G           17.4209387401        1.1372958764       -3.8198310417  MEMB      110             0.0000000000
     12853       110  OSM       C18F           16.1240800195        1.6778315286       -2.1974606004  MEMB      110             0.0000000000
     12854       110  OSM       H18F           15.6484293287        2.5874705605       -1.7675116663  MEMB      110             0.0000000000
     12855       110  OSM       H18G           16.7197202091        1.1875246538       -1.3970070016  MEMB      110             0.0000000000
     12856       110  OSM       H18H           15.3216089292        0.9786044842       -2.5208144920  MEMB      110             0.0000000000
     12857       111  POPC      N             -16.7786464604        5.6828223443      -21.0654311782  MEMB      111             0.0000000000
     12858       111  POPC      C12           -17.2853775800        4.3685361850      -20.4882123970  MEMB      111             0.0000000000
     12859       111  POPC      H12A          -16.5955036059        3.5742049733      -20.7473685591  MEMB      111             0.0000000000
     12860       111  POPC      H12B          -18.2376662990        4.1460855107      -20.9542659602  MEMB      111             0.0000000000
     12861       111  POPC      C13           -17.6916401549        6.7831565275      -20.6274297510  MEMB      111             0.0000000000
     12862       111  POPC      H13A          -17.7466249187        6.8133771398      -19.5430359575  MEMB      111             0.0000000000
     12863       111  POPC      H13B          -17.3432562803        7.7393976600      -21.0020660329  MEMB      111             0.0000000000
     12864       111  POPC      H13C          -18.6883988579        6.6219578288      -21.0384738575  MEMB      111             0.0000000000
     12865       111  POPC      C14           -15.3811977967        5.9930790255      -20.6204403214  MEMB      111             0.0000000000
     12866       111  POPC      H14A          -15.3667928824        6.0850961398      -19.5325318575  MEMB      111             0.0000000000
     12867       111  POPC      H14B          -14.6725972934        5.2248960022      -20.8833412918  MEMB      111             0.0000000000
     12868       111  POPC      H14C          -15.0291423735        6.9402393249      -21.0036290331  MEMB      111             0.0000000000
     12869       111  POPC      C15           -16.8182655769        5.6874595707      -22.5570607835  MEMB      111             0.0000000000
     12870       111  POPC      H15A          -17.8273391475        5.5230589919      -22.9129882549  MEMB      111             0.0000000000
     12871       111  POPC      H15B          -16.1435696925        4.9513523865      -22.9826446796  MEMB      111             0.0000000000
     12872       111  POPC      H15C          -16.4974457047        6.6581688973      -22.9482426278  MEMB      111             0.0000000000
     12873       111  POPC      C11           -17.5227018215        4.3113789283      -18.9572392238  MEMB      111             0.0000000000
     12874       111  POPC      H11A          -17.8694498269        3.2883073663      -18.6821229499  MEMB      111             0.0000000000
     12875       111  POPC      H11B          -18.3471910450        5.0074106820      -18.6731418403  MEMB      111             0.0000000000
     12876       111  POPC      P             -16.1441759330        5.6271209065      -17.0952669539  MEMB      111             0.0000000000
     12877       111  POPC      O13           -17.4746835707        5.9947674818      -16.5679007679  MEMB      111             0.0000000000
     12878       111  POPC      O14           -15.2455913586        6.6846793561      -17.6012076353  MEMB      111             0.0000000000
     12879       111  POPC      O12           -16.3124768478        4.5879312190      -18.2788627261  MEMB      111             0.0000000000
     12880       111  POPC      O11           -15.3895057432        4.7305273607      -16.0630229092  MEMB      111             0.0000000000
     12881       111  POPC      C1            -15.1576381885        3.3642106253      -16.3721887459  MEMB      111             0.0000000000
     12882       111  POPC      HA            -14.8689230035        3.1700690984      -17.4348655039  MEMB      111             0.0000000000
     12883       111  POPC      HB            -16.0447939234        2.7462845933      -16.1164372177  MEMB      111             0.0000000000
     12884       111  POPC      C2            -13.9477347704        2.9883503980      -15.5700662315  MEMB      111             0.0000000000
     12885       111  POPC      HS            -13.6611170568        1.9300164882      -15.7839089941  MEMB      111             0.0000000000
     12886       111  POPC      O21           -14.2201182528        3.1652595614      -14.1739793181  MEMB      111             0.0000000000
     12887       111  POPC      C21           -15.0558028114        2.2588060842      -13.7041591770  MEMB      111             0.0000000000
     12888       111  POPC      O22           -15.4098292777        1.2469143655      -14.2883158210  MEMB      111             0.0000000000
     12889       111  POPC      C22           -15.4062772469        2.6199457997      -12.2659566845  MEMB      111             0.0000000000
     12890       111  POPC      H2R           -16.4560636145        2.3394551464      -12.0867169658  MEMB      111             0.0000000000
     12891       111  POPC      H2S           -15.3397073858        3.7209539873      -12.1612493758  MEMB      111             0.0000000000
     12892       111  POPC      C3            -12.7391603975        3.8537580120      -16.0409547605  MEMB      111             0.0000000000
     12893       111  POPC      HX            -12.6844076057        3.7802947042      -17.1466132202  MEMB      111             0.0000000000
     12894       111  POPC      HY            -11.9080545284        3.3161987903      -15.5896599171  MEMB      111             0.0000000000
     12895       111  POPC      O31           -12.6933291512        5.2475474617      -15.6945247982  MEMB      111             0.0000000000
     12896       111  POPC      C31           -12.2206152989        5.5033430037      -14.4879205735  MEMB      111             0.0000000000
     12897       111  POPC      O32           -11.5846085274        4.7397123312      -13.7864095866  MEMB      111             0.0000000000
     12898       111  POPC      C32           -12.7724435939        6.8025793976      -13.9908865901  MEMB      111             0.0000000000
     12899       111  POPC      H2X           -13.1148564687        7.4105736799      -14.8550333093  MEMB      111             0.0000000000
     12900       111  POPC      H2Y           -11.9519270296        7.3267221264      -13.4544402233  MEMB      111             0.0000000000
     12901       111  POPC      C23           -14.4613678238        1.9257597568      -11.2604267184  MEMB      111             0.0000000000
     12902       111  POPC      H3R           -13.4421799023        1.8603212696      -11.7073384460  MEMB      111             0.0000000000
     12903       111  POPC      H3S           -14.7991810373        0.8881016988      -11.0420302973  MEMB      111             0.0000000000
     12904       111  POPC      C24           -14.2908089676        2.7007023672       -9.9518207835  MEMB      111             0.0000000000
     12905       111  POPC      H4R           -15.2274139097        2.6678445512       -9.3524957585  MEMB      111             0.0000000000
     12906       111  POPC      H4S           -14.0640665735        3.7687097748      -10.1765107408  MEMB      111             0.0000000000
     12907       111  POPC      C25           -13.1316924269        2.1130770708       -9.1469385202  MEMB      111             0.0000000000
     12908       111  POPC      H5R           -12.2204529693        2.0629595824       -9.7846391395  MEMB      111             0.0000000000
     12909       111  POPC      H5S           -13.3908796099        1.0706318462       -8.8491049166  MEMB      111             0.0000000000
     12910       111  POPC      C26           -12.7917109434        2.9181926791       -7.8970643958  MEMB      111             0.0000000000
     12911       111  POPC      H6R           -13.7126039299        2.9684604111       -7.2788280126  MEMB      111             0.0000000000
     12912       111  POPC      H6S           -12.4937026721        3.9582509539       -8.1568055270  MEMB      111             0.0000000000
     12913       111  POPC      C27           -11.6606652538        2.2278764220       -7.1346960342  MEMB      111             0.0000000000
     12914       111  POPC      H7R           -10.7013408295        2.4136104132       -7.6685106732  MEMB      111             0.0000000000
     12915       111  POPC      H7S           -11.8200287276        1.1308768816       -7.1677163420  MEMB      111             0.0000000000
     12916       111  POPC      C28           -11.5128914789        2.6367647686       -5.6620578655  MEMB      111             0.0000000000
     12917       111  POPC      H8R           -11.1207765270        3.6739188591       -5.6188888132  MEMB      111             0.0000000000
     12918       111  POPC      H8S           -10.7297472353        1.9520043842       -5.2723367008  MEMB      111             0.0000000000
     12919       111  POPC      C29           -12.7419070360        2.5323547145       -4.8052636518  MEMB      111             0.0000000000
     12920       111  POPC      H91           -13.6765712743        2.8738174154       -5.2692297099  MEMB      111             0.0000000000
     12921       111  POPC      C210          -12.7982496251        2.0668925689       -3.5497123972  MEMB      111             0.0000000000
     12922       111  POPC      H101          -13.7789056289        2.0566358326       -3.0514015827  MEMB      111             0.0000000000
     12923       111  POPC      C211          -11.6508892174        1.5517658103       -2.7191609077  MEMB      111             0.0000000000
     12924       111  POPC      H11R          -10.6856613561        1.5422825141       -3.2694508092  MEMB      111             0.0000000000
     12925       111  POPC      H11S          -11.8380903444        0.5079924909       -2.3845463538  MEMB      111             0.0000000000
     12926       111  POPC      C212          -11.4961090534        2.4636321484       -1.5003188131  MEMB      111             0.0000000000
     12927       111  POPC      H12R          -11.3638573805        3.5203893836       -1.8310549331  MEMB      111             0.0000000000
     12928       111  POPC      H12S          -10.5699827439        2.1727471175       -0.9546846002  MEMB      111             0.0000000000
     12929       111  POPC      C213          -12.6794796733        2.3597534323       -0.5293647704  MEMB      111             0.0000000000
     12930       111  POPC      H13R          -12.5468908388        1.4191871630        0.0491881084  MEMB      111             0.0000000000
     12931       111  POPC      H13S          -13.6551139593        2.2891076906       -1.0529680874  MEMB      111             0.0000000000
     12932       111  POPC      C214          -12.7595606571        3.5354244010        0.4405477275  MEMB      111             0.0000000000
     12933       111  POPC      H14R          -13.5218219379        3.2892903072        1.2114301128  MEMB      111             0.0000000000
     12934       111  POPC      H14S          -13.0746234395        4.4722655752       -0.0647688123  MEMB      111             0.0000000000
     12935       111  POPC      C215          -11.4293801523        3.7820468909        1.1286871207  MEMB      111             0.0000000000
     12936       111  POPC      H15R          -10.7632460667        4.3742601382        0.4609586745  MEMB      111             0.0000000000
     12937       111  POPC      H15S          -10.9747314964        2.7764758029        1.2811672630  MEMB      111             0.0000000000
     12938       111  POPC      C216          -11.5694120594        4.4283517837        2.5061276281  MEMB      111             0.0000000000
     12939       111  POPC      H16R          -10.5587863803        4.7421409461        2.8509955808  MEMB      111             0.0000000000
     12940       111  POPC      H16S          -11.9476350554        3.6528238153        3.2080718171  MEMB      111             0.0000000000
     12941       111  POPC      C217          -12.5324537640        5.6161457661        2.5780101564  MEMB      111             0.0000000000
     12942       111  POPC      H17R          -12.6302340969        5.8811775544        3.6441933539  MEMB      111             0.0000000000
     12943       111  POPC      H17S          -13.5539188862        5.3544497211        2.2251090506  MEMB      111             0.0000000000
     12944       111  POPC      C218          -12.0263149071        6.8406589438        1.8465140340  MEMB      111             0.0000000000
     12945       111  POPC      H18R          -12.6962443103        7.7133393645        2.0121099244  MEMB      111             0.0000000000
     12946       111  POPC      H18S          -11.9560972737        6.6273875303        0.7581231017  MEMB      111             0.0000000000
     12947       111  POPC      H18T          -11.0156568262        7.0976875773        2.2149950934  MEMB      111             0.0000000000
     12948       111  POPC      C33           -13.9353195636        6.4540061778      -13.0350154169  MEMB      111             0.0000000000
     12949       111  POPC      H3X           -13.5853545364        6.6297477536      -11.9954289509  MEMB      111             0.0000000000
     12950       111  POPC      H3Y           -14.2042090265        5.3735996283      -13.0914505825  MEMB      111             0.0000000000
     12951       111  POPC      C34           -15.2173557511        7.2289146976      -13.3523773970  MEMB      111             0.0000000000
     12952       111  POPC      H4X           -15.4587435146        7.1385458621      -14.4367345478  MEMB      111             0.0000000000
     12953       111  POPC      H4Y           -15.0170711541        8.2963871074      -13.1449964596  MEMB      111             0.0000000000
     12954       111  POPC      C35           -16.4452349208        6.8089151408      -12.5261648693  MEMB      111             0.0000000000
     12955       111  POPC      H5X           -16.8667931971        5.8571849823      -12.9261954298  MEMB      111             0.0000000000
     12956       111  POPC      H5Y           -17.2202960738        7.5976740787      -12.6630568512  MEMB      111             0.0000000000
     12957       111  POPC      C36           -16.1053569644        6.6462636597      -11.0353253230  MEMB      111             0.0000000000
     12958       111  POPC      H6X           -15.2783521813        7.3503616882      -10.7950315105  MEMB      111             0.0000000000
     12959       111  POPC      H6Y           -15.7211200190        5.6126902971      -10.8900073949  MEMB      111             0.0000000000
     12960       111  POPC      C37           -17.2788452175        6.9414425759      -10.0921568483  MEMB      111             0.0000000000
     12961       111  POPC      H7X           -18.1683806473        6.3713241569      -10.4387613478  MEMB      111             0.0000000000
     12962       111  POPC      H7Y           -17.5215749825        8.0293015498      -10.1635529927  MEMB      111             0.0000000000
     12963       111  POPC      C38           -17.0171782868        6.6087816132       -8.6093180325  MEMB      111             0.0000000000
     12964       111  POPC      H8X           -17.9902317788        6.6461096773       -8.0662421320  MEMB      111             0.0000000000
     12965       111  POPC      H8Y           -16.3754334874        7.4123413290       -8.1856422349  MEMB      111             0.0000000000
     12966       111  POPC      C39           -16.3604659373        5.2417377774       -8.3243235137  MEMB      111             0.0000000000
     12967       111  POPC      H9X           -15.3007485360        5.2529893117       -8.6685359632  MEMB      111             0.0000000000
     12968       111  POPC      H9Y           -16.8951576656        4.4507347746       -8.8946774127  MEMB      111             0.0000000000
     12969       111  POPC      C310          -16.3745398440        4.8957762864       -6.8235456184  MEMB      111             0.0000000000
     12970       111  POPC      H10X          -16.0688872956        3.8360227348       -6.6640742137  MEMB      111             0.0000000000
     12971       111  POPC      H10Y          -17.4179947256        5.0033615697       -6.4502964302  MEMB      111             0.0000000000
     12972       111  POPC      C311          -15.4299775648        5.8173806228       -6.0376969053  MEMB      111             0.0000000000
     12973       111  POPC      H11X          -15.5214827269        6.8470234964       -6.4338219211  MEMB      111             0.0000000000
     12974       111  POPC      H11Y          -14.3795599127        5.4998016109       -6.2234671743  MEMB      111             0.0000000000
     12975       111  POPC      C312          -15.6955058746        5.9137317683       -4.5307716512  MEMB      111             0.0000000000
     12976       111  POPC      H12X          -16.7746988883        5.7760269848       -4.3083644182  MEMB      111             0.0000000000
     12977       111  POPC      H12Y          -15.4123352443        6.9424754616       -4.2003939131  MEMB      111             0.0000000000
     12978       111  POPC      C313          -14.8205181936        4.9236638060       -3.7678570896  MEMB      111             0.0000000000
     12979       111  POPC      H13X          -13.7716290868        5.0849347822       -4.1174375943  MEMB      111             0.0000000000
     12980       111  POPC      H13Y          -15.1190592807        3.8859449861       -4.0275774334  MEMB      111             0.0000000000
     12981       111  POPC      C314          -14.8110207736        5.1017648860       -2.2494566515  MEMB      111             0.0000000000
     12982       111  POPC      H14X          -14.7307067603        6.1786072076       -2.0000403566  MEMB      111             0.0000000000
     12983       111  POPC      H14Y          -13.8918963579        4.5978072555       -1.8821828031  MEMB      111             0.0000000000
     12984       111  POPC      C315          -16.0205371711        4.4878751717       -1.5415023839  MEMB      111             0.0000000000
     12985       111  POPC      H15X          -16.0097069489        3.3905567689       -1.7350493427  MEMB      111             0.0000000000
     12986       111  POPC      H15Y          -16.9480824050        4.9088888280       -1.9919679126  MEMB      111             0.0000000000
     12987       111  POPC      C316          -16.0557877179        4.7332562185       -0.0304439510  MEMB      111             0.0000000000
     12988       111  POPC      H16X          -15.9938658199        5.8198603471        0.1907700065  MEMB      111             0.0000000000
     12989       111  POPC      H16Y          -15.2063189722        4.2365046071        0.4702107837  MEMB      111             0.0000000000
     12990       111  POPC      H16Z          -16.9860944925        4.3261880938        0.4183717457  MEMB      111             0.0000000000
     12991       112  SAPC      N             -11.0886927677       13.0741725274      -18.3310512774  MEMB      112             0.0000000000
     12992       112  SAPC      C12           -12.2042521516       13.7326157292      -19.1221750335  MEMB      112             0.0000000000
     12993       112  SAPC      H12A          -12.1467574201       14.7996981691      -18.9581610399  MEMB      112             0.0000000000
     12994       112  SAPC      H12B          -13.1642758448       13.3732778011      -18.7523410483  MEMB      112             0.0000000000
     12995       112  SAPC      C13           -11.1933133733       13.4452574069      -16.8955938734  MEMB      112             0.0000000000
     12996       112  SAPC      H13A          -12.1194345464       13.1005236041      -16.4622846745  MEMB      112             0.0000000000
     12997       112  SAPC      H13B          -10.3639518992       13.0215888812      -16.3386042463  MEMB      112             0.0000000000
     12998       112  SAPC      H13C          -11.1074192505       14.5246505233      -16.7759783321  MEMB      112             0.0000000000
     12999       112  SAPC      C14           -11.1497807127       11.5849198922      -18.5103871722  MEMB      112             0.0000000000
     13000       112  SAPC      H14A          -11.1482734339       11.3730614565      -19.5870374189  MEMB      112             0.0000000000
     13001       112  SAPC      H14B          -10.2973260503       11.0949422509      -18.0672007851  MEMB      112             0.0000000000
     13002       112  SAPC      H14C          -12.0573301945       11.1337394649      -18.1378725102  MEMB      112             0.0000000000
     13003       112  SAPC      C15            -9.7447394591       13.5265847505      -18.8268048048  MEMB      112             0.0000000000
     13004       112  SAPC      H15A           -9.6453476721       13.3820199718      -19.8992941967  MEMB      112             0.0000000000
     13005       112  SAPC      H15B           -9.5086485792       14.5817962110      -18.6420796478  MEMB      112             0.0000000000
     13006       112  SAPC      H15C           -8.9273995950       12.9847643140      -18.3627292514  MEMB      112             0.0000000000
     13007       112  SAPC      C11           -12.2464274612       13.5177182842      -20.6522428559  MEMB      112             0.0000000000
     13008       112  SAPC      H11A          -11.3123752523       13.8893751575      -21.1268665836  MEMB      112             0.0000000000
     13009       112  SAPC      H11B          -13.0851004680       14.1706114320      -21.0151002007  MEMB      112             0.0000000000
     13010       112  SAPC      P             -13.4299184724       11.7835097548      -22.1679091113  MEMB      112             0.0000000000
     13011       112  SAPC      O13           -13.4226143429       12.8556592105      -23.1945175955  MEMB      112             0.0000000000
     13012       112  SAPC      O14           -13.2508756723       10.4060234469      -22.6944907958  MEMB      112             0.0000000000
     13013       112  SAPC      O12           -12.4386787113       12.1344433239      -20.9722840155  MEMB      112             0.0000000000
     13014       112  SAPC      O11           -14.8251766077       11.9080282092      -21.4555660044  MEMB      112             0.0000000000
     13015       112  SAPC      C1            -15.2428284293       11.0671442831      -20.3862381766  MEMB      112             0.0000000000
     13016       112  SAPC      HA            -15.7575383128       10.1695845716      -20.7992102938  MEMB      112             0.0000000000
     13017       112  SAPC      HB            -14.3900723490       10.7290846457      -19.7502760389  MEMB      112             0.0000000000
     13018       112  SAPC      C2            -16.2458118259       11.8125126635      -19.4653818515  MEMB      112             0.0000000000
     13019       112  SAPC      HS            -17.1295678610       12.0780664468      -20.0964898400  MEMB      112             0.0000000000
     13020       112  SAPC      O21           -15.5898323375       12.9745963137      -18.9136595311  MEMB      112             0.0000000000
     13021       112  SAPC      C21           -16.3891806508       14.0231509048      -18.7588412648  MEMB      112             0.0000000000
     13022       112  SAPC      O22           -17.5789157821       14.0536020529      -18.9939934420  MEMB      112             0.0000000000
     13023       112  SAPC      C22           -15.5705239951       15.2080774883      -18.2695015772  MEMB      112             0.0000000000
     13024       112  SAPC      H2R           -14.5031132094       14.9293086414      -18.2178227468  MEMB      112             0.0000000000
     13025       112  SAPC      H2S           -15.7077836754       16.0252836964      -19.0094487530  MEMB      112             0.0000000000
     13026       112  SAPC      C3            -16.7157666510       10.8938143110      -18.3191183437  MEMB      112             0.0000000000
     13027       112  SAPC      HX            -17.2397833786       10.0130002397      -18.7563464986  MEMB      112             0.0000000000
     13028       112  SAPC      HY            -17.4648163296       11.4528835104      -17.7070206989  MEMB      112             0.0000000000
     13029       112  SAPC      O31           -15.5446564981       10.4483714689      -17.5979090602  MEMB      112             0.0000000000
     13030       112  SAPC      C31           -15.5570579969       10.6386697766      -16.2946534639  MEMB      112             0.0000000000
     13031       112  SAPC      O32           -16.4656924300       11.1350827694      -15.6563537071  MEMB      112             0.0000000000
     13032       112  SAPC      C32           -14.2369913651       10.1273491873      -15.6989060108  MEMB      112             0.0000000000
     13033       112  SAPC      H2X           -13.4152499233       10.4638431860      -16.3602320484  MEMB      112             0.0000000000
     13034       112  SAPC      H2Y           -14.2943364787        9.0178628346      -15.7175402575  MEMB      112             0.0000000000
     13035       112  SAPC      C23           -16.0720526166       15.6535042908      -16.8895521069  MEMB      112             0.0000000000
     13036       112  SAPC      H3R           -17.1099349230       16.0519705024      -17.0173354999  MEMB      112             0.0000000000
     13037       112  SAPC      H3S           -15.4366034280       16.4873563843      -16.5185538963  MEMB      112             0.0000000000
     13038       112  SAPC      C24           -16.0398412335       14.5296585757      -15.8376261290  MEMB      112             0.0000000000
     13039       112  SAPC      H4R           -14.9996486817       14.3184043796      -15.5089222066  MEMB      112             0.0000000000
     13040       112  SAPC      H4S           -16.4502692881       13.5904475974      -16.2604507799  MEMB      112             0.0000000000
     13041       112  SAPC      C25           -16.9500610759       14.9196599708      -14.7157649722  MEMB      112             0.0000000000
     13042       112  SAPC      H5R           -17.9630628702       15.1928721404      -15.0471941600  MEMB      112             0.0000000000
     13043       112  SAPC      C26           -16.6695042252       15.0019113494      -13.4116509910  MEMB      112             0.0000000000
     13044       112  SAPC      H6R           -17.4855964023       15.3124503270      -12.7510953105  MEMB      112             0.0000000000
     13045       112  SAPC      C27           -15.3687369572       14.7285138984      -12.7052768389  MEMB      112             0.0000000000
     13046       112  SAPC      H7R           -15.3131223689       15.3283359421      -11.7708051533  MEMB      112             0.0000000000
     13047       112  SAPC      H7S           -14.5391213139       15.1152751067      -13.3363995092  MEMB      112             0.0000000000
     13048       112  SAPC      C28           -15.0489874065       13.2968086497      -12.3787915260  MEMB      112             0.0000000000
     13049       112  SAPC      H8R           -13.9685702392       13.1135766337      -12.3862973406  MEMB      112             0.0000000000
     13050       112  SAPC      C29           -15.8500159863       12.2536469905      -12.0823632026  MEMB      112             0.0000000000
     13051       112  SAPC      H9R           -15.3673067009       11.2867821275      -11.8729670207  MEMB      112             0.0000000000
     13052       112  SAPC      C210          -17.3539420415       12.1853582490      -11.9751403273  MEMB      112             0.0000000000
     13053       112  SAPC      H10R          -17.7863078710       11.7268541868      -12.8955635860  MEMB      112             0.0000000000
     13054       112  SAPC      H10S          -17.8211618993       13.1899993327      -11.8847016797  MEMB      112             0.0000000000
     13055       112  SAPC      C211          -17.6965118380       11.3465813031      -10.7699987820  MEMB      112             0.0000000000
     13056       112  SAPC      H11R          -18.2301944709       10.4099302438      -10.9900684756  MEMB      112             0.0000000000
     13057       112  SAPC      C212          -17.4806317861       11.6860983762       -9.4808974843  MEMB      112             0.0000000000
     13058       112  SAPC      H12R          -17.8164519189       10.9992482520       -8.6885873945  MEMB      112             0.0000000000
     13059       112  SAPC      C213          -16.8548733141       12.9742902582       -8.9956692840  MEMB      112             0.0000000000
     13060       112  SAPC      H13R          -17.4847763623       13.4044613100       -8.1855260442  MEMB      112             0.0000000000
     13061       112  SAPC      H13S          -16.8554835024       13.7497599633       -9.7945489886  MEMB      112             0.0000000000
     13062       112  SAPC      C214          -15.4410279138       12.7909388615       -8.5068448836  MEMB      112             0.0000000000
     13063       112  SAPC      H14R          -14.6539987994       13.1197497382       -9.2042131342  MEMB      112             0.0000000000
     13064       112  SAPC      C215          -15.0774501854       12.3021299878       -7.3092528935  MEMB      112             0.0000000000
     13065       112  SAPC      H15R          -14.0070925655       12.2574136007       -7.0595919102  MEMB      112             0.0000000000
     13066       112  SAPC      C216          -15.9983806618       11.8378937228       -6.2090293829  MEMB      112             0.0000000000
     13067       112  SAPC      H16R          -15.5109143967       11.0240669669       -5.6276710726  MEMB      112             0.0000000000
     13068       112  SAPC      H16S          -16.9412699033       11.4158474470       -6.6210186221  MEMB      112             0.0000000000
     13069       112  SAPC      C217          -16.3541327407       12.9973897321       -5.2565668851  MEMB      112             0.0000000000
     13070       112  SAPC      H17R          -16.9803262930       12.6024436013       -4.4256635492  MEMB      112             0.0000000000
     13071       112  SAPC      H17S          -16.9730628956       13.7380325922       -5.8141146792  MEMB      112             0.0000000000
     13072       112  SAPC      C218          -15.1199114996       13.7142296045       -4.6783669030  MEMB      112             0.0000000000
     13073       112  SAPC      H18R          -14.5054874950       14.1025018649       -5.5233931647  MEMB      112             0.0000000000
     13074       112  SAPC      H18S          -14.4901875356       12.9864785479       -4.1188245595  MEMB      112             0.0000000000
     13075       112  SAPC      C219          -15.4570047317       14.9200281910       -3.7918852947  MEMB      112             0.0000000000
     13076       112  SAPC      H19R          -16.3645524575       15.4293351743       -4.1884328583  MEMB      112             0.0000000000
     13077       112  SAPC      H19S          -14.6123779346       15.6456284073       -3.8665686863  MEMB      112             0.0000000000
     13078       112  SAPC      C220          -15.6457751106       14.5652470861       -2.3165896113  MEMB      112             0.0000000000
     13079       112  SAPC      H20R          -15.7883707720       15.4855115322       -1.7104615141  MEMB      112             0.0000000000
     13080       112  SAPC      H20S          -14.7486616571       14.0301305206       -1.9389428909  MEMB      112             0.0000000000
     13081       112  SAPC      H20T          -16.5286588461       13.9063470586       -2.1791406926  MEMB      112             0.0000000000
     13082       112  SAPC      C33           -13.9947750937       10.6631984401      -14.2643740804  MEMB      112             0.0000000000
     13083       112  SAPC      H3X           -14.7904949297       10.2693699290      -13.5961115521  MEMB      112             0.0000000000
     13084       112  SAPC      H3Y           -14.1002493065       11.7709860768      -14.2869801838  MEMB      112             0.0000000000
     13085       112  SAPC      C34           -12.6004136374       10.3551211676      -13.6905786485  MEMB      112             0.0000000000
     13086       112  SAPC      H4X           -11.8708824009       10.9981347445      -14.2294021858  MEMB      112             0.0000000000
     13087       112  SAPC      H4Y           -12.3309373388        9.3055864515      -13.9112106395  MEMB      112             0.0000000000
     13088       112  SAPC      C35           -12.4534631158       10.5847457283      -12.1710176225  MEMB      112             0.0000000000
     13089       112  SAPC      H5X           -12.8869357238       11.5642712240      -11.8966201792  MEMB      112             0.0000000000
     13090       112  SAPC      H5Y           -11.3716508160       10.6368727947      -11.9153971371  MEMB      112             0.0000000000
     13091       112  SAPC      C36           -13.1231664532        9.5006946249      -11.3057918974  MEMB      112             0.0000000000
     13092       112  SAPC      H6X           -12.6908248671        8.5115802183      -11.5642695787  MEMB      112             0.0000000000
     13093       112  SAPC      H6Y           -14.2091997282        9.4815185303      -11.5436595155  MEMB      112             0.0000000000
     13094       112  SAPC      C37           -12.9942163041        9.7217111990       -9.7871265749  MEMB      112             0.0000000000
     13095       112  SAPC      H7X           -13.3582391772       10.7482430608       -9.5560467932  MEMB      112             0.0000000000
     13096       112  SAPC      H7Y           -11.9272013107        9.6565048916       -9.4865016432  MEMB      112             0.0000000000
     13097       112  SAPC      C38           -13.8359860042        8.7277827048       -8.9604385103  MEMB      112             0.0000000000
     13098       112  SAPC      H8X           -13.5636081135        7.6781356584       -9.2034514512  MEMB      112             0.0000000000
     13099       112  SAPC      H8Y           -14.8996893011        8.8783984444       -9.2581033931  MEMB      112             0.0000000000
     13100       112  SAPC      C39           -13.7411268361        8.9461120767       -7.4412056730  MEMB      112             0.0000000000
     13101       112  SAPC      H9X           -14.7172281073        8.7073340629       -6.9677397467  MEMB      112             0.0000000000
     13102       112  SAPC      H9Y           -13.5652893250       10.0247438621       -7.2617526072  MEMB      112             0.0000000000
     13103       112  SAPC      C310          -12.6445051907        8.1056776354       -6.7660303997  MEMB      112             0.0000000000
     13104       112  SAPC      H10X          -11.6916047011        8.2512677527       -7.3199601820  MEMB      112             0.0000000000
     13105       112  SAPC      H10Y          -12.9083084026        7.0281536801       -6.8526501608  MEMB      112             0.0000000000
     13106       112  SAPC      C311          -12.4042867693        8.4374619593       -5.2805114987  MEMB      112             0.0000000000
     13107       112  SAPC      H11X          -11.5268525524        7.8487972705       -4.9274786180  MEMB      112             0.0000000000
     13108       112  SAPC      H11Y          -13.2852686936        8.1057181776       -4.6842176697  MEMB      112             0.0000000000
     13109       112  SAPC      C312          -12.1621761859        9.9269826496       -4.9687168132  MEMB      112             0.0000000000
     13110       112  SAPC      H12X          -11.8019885650       10.0069510739       -3.9181872389  MEMB      112             0.0000000000
     13111       112  SAPC      H12Y          -13.1362849223       10.4628405189       -5.0211250123  MEMB      112             0.0000000000
     13112       112  SAPC      C313          -11.1739215588       10.6445706863       -5.9075250463  MEMB      112             0.0000000000
     13113       112  SAPC      H13X          -11.4722168785       10.4894204385       -6.9659988440  MEMB      112             0.0000000000
     13114       112  SAPC      H13Y          -10.1625562440       10.1971546431       -5.8001531782  MEMB      112             0.0000000000
     13115       112  SAPC      C314          -11.1267653691       12.1659796444       -5.6719360544  MEMB      112             0.0000000000
     13116       112  SAPC      H14X          -12.1300575560       12.5913824117       -5.9041083528  MEMB      112             0.0000000000
     13117       112  SAPC      H14Y          -10.4018801537       12.6200088371       -6.3831980258  MEMB      112             0.0000000000
     13118       112  SAPC      C315          -10.7600316217       12.5722849694       -4.2364022020  MEMB      112             0.0000000000
     13119       112  SAPC      H15X          -11.6091599050       12.3014197503       -3.5708210086  MEMB      112             0.0000000000
     13120       112  SAPC      H15Y          -10.6537229030       13.6795691969       -4.1853929748  MEMB      112             0.0000000000
     13121       112  SAPC      C316           -9.4758126049       11.9006885480       -3.7308947681  MEMB      112             0.0000000000
     13122       112  SAPC      H16X           -8.6167986258       12.2810265805       -4.3134102760  MEMB      112             0.0000000000
     13123       112  SAPC      H16Y           -9.5050908990       10.8065011615       -3.9181356526  MEMB      112             0.0000000000
     13124       112  SAPC      C317           -9.2543495889       12.0555069637       -2.2249283467  MEMB      112             0.0000000000
     13125       112  SAPC      H17X           -9.3822043360       13.1138119810       -1.9057682465  MEMB      112             0.0000000000
     13126       112  SAPC      H17Y           -8.2055662905       11.7559383730       -1.9877162900  MEMB      112             0.0000000000
     13127       112  SAPC      C318          -10.2082478534       11.1549906476       -1.4545473549  MEMB      112             0.0000000000
     13128       112  SAPC      H18X          -10.1547581393       10.1303399141       -1.8736330694  MEMB      112             0.0000000000
     13129       112  SAPC      H18Y          -11.2585070182       11.4891217880       -1.5732014459  MEMB      112             0.0000000000
     13130       112  SAPC      H18Z           -9.9545395523       11.1291510604       -0.3731076457  MEMB      112             0.0000000000
     13131       113  CHL1      C3              3.7266491960      -17.1092525633      -17.3064414027  MEMB      113             0.0000000000
     13132       113  CHL1      H3              4.0335068956      -16.2696632012      -16.6356256069  MEMB      113             0.0000000000
     13133       113  CHL1      O3              3.7598677409      -16.6786767494      -18.6539338067  MEMB      113             0.0000000000
     13134       113  CHL1      H3'             4.4262251330      -15.9825787139      -18.6694092241  MEMB      113             0.0000000000
     13135       113  CHL1      C4              4.6609399345      -18.3104377462      -17.1226912005  MEMB      113             0.0000000000
     13136       113  CHL1      H4A             4.3087798419      -19.1331107669      -17.7834445953  MEMB      113             0.0000000000
     13137       113  CHL1      H4B             5.6787706596      -18.0302922635      -17.4729694420  MEMB      113             0.0000000000
     13138       113  CHL1      C5              4.6547858517      -18.7322090840      -15.6689920115  MEMB      113             0.0000000000
     13139       113  CHL1      C6              5.7875441879      -18.7218347632      -14.9488165837  MEMB      113             0.0000000000
     13140       113  CHL1      H6              6.7360806717      -18.4447788847      -15.4298401436  MEMB      113             0.0000000000
     13141       113  CHL1      C7              5.8593851220      -19.0754866176      -13.4939989889  MEMB      113             0.0000000000
     13142       113  CHL1      H7A             6.6836359094      -19.7962153773      -13.3001116432  MEMB      113             0.0000000000
     13143       113  CHL1      H7B             6.0949158979      -18.1476043241      -12.9276872946  MEMB      113             0.0000000000
     13144       113  CHL1      C8              4.5312504758      -19.6544095425      -12.9274808667  MEMB      113             0.0000000000
     13145       113  CHL1      H8              4.4891301237      -20.7400133034      -13.1626242100  MEMB      113             0.0000000000
     13146       113  CHL1      C14             4.5036869004      -19.4352235444      -11.4291867855  MEMB      113             0.0000000000
     13147       113  CHL1      H14             4.5552275340      -18.3238369403      -11.2912489810  MEMB      113             0.0000000000
     13148       113  CHL1      C15             5.6781504246      -19.9949698701      -10.6285308195  MEMB      113             0.0000000000
     13149       113  CHL1      H15A            5.7547810359      -21.0576650591      -10.9285167412  MEMB      113             0.0000000000
     13150       113  CHL1      H15B            6.6386414505      -19.4739435522      -10.8034522394  MEMB      113             0.0000000000
     13151       113  CHL1      C16             5.1917392851      -19.9173811375       -9.1835727509  MEMB      113             0.0000000000
     13152       113  CHL1      H16A            5.2282480245      -20.9329513647       -8.7417345571  MEMB      113             0.0000000000
     13153       113  CHL1      H16B            5.7952552422      -19.2264009196       -8.5659502635  MEMB      113             0.0000000000
     13154       113  CHL1      C17             3.6928140107      -19.4945075372       -9.2601011334  MEMB      113             0.0000000000
     13155       113  CHL1      H17             3.6847997047      -18.3774720600       -9.2488096704  MEMB      113             0.0000000000
     13156       113  CHL1      C13             3.2481673226      -19.8933536625      -10.6842282404  MEMB      113             0.0000000000
     13157       113  CHL1      C18             3.0670011138      -21.4351898543      -10.8012738156  MEMB      113             0.0000000000
     13158       113  CHL1      H18A            3.0097337494      -21.7392720082      -11.8652433892  MEMB      113             0.0000000000
     13159       113  CHL1      H18B            3.8990480431      -21.9970008112      -10.3377064616  MEMB      113             0.0000000000
     13160       113  CHL1      H18C            2.1263752195      -21.7601088572      -10.3174298465  MEMB      113             0.0000000000
     13161       113  CHL1      C12             2.0502703124      -19.1383723520      -11.2809049826  MEMB      113             0.0000000000
     13162       113  CHL1      H12A            1.1000192978      -19.4720743669      -10.8206501068  MEMB      113             0.0000000000
     13163       113  CHL1      H12B            2.1763420326      -18.0536496741      -11.0719504643  MEMB      113             0.0000000000
     13164       113  CHL1      C11             1.9796332644      -19.3410130532      -12.8064335525  MEMB      113             0.0000000000
     13165       113  CHL1      H11A            1.7370858490      -20.4021256459      -13.0193503775  MEMB      113             0.0000000000
     13166       113  CHL1      H11B            1.1405100013      -18.7250188685      -13.1894690734  MEMB      113             0.0000000000
     13167       113  CHL1      C9              3.3102603087      -18.9500287870      -13.5176180848  MEMB      113             0.0000000000
     13168       113  CHL1      H9              3.4612952545      -17.8713432431      -13.2580305938  MEMB      113             0.0000000000
     13169       113  CHL1      C10             3.2580529925      -19.0021552683      -15.0607137083  MEMB      113             0.0000000000
     13170       113  CHL1      C19             2.8303011980      -20.4193512242      -15.5172726109  MEMB      113             0.0000000000
     13171       113  CHL1      H19A            3.4977916077      -21.1949823908      -15.0894961508  MEMB      113             0.0000000000
     13172       113  CHL1      H19B            1.7876240880      -20.6337848611      -15.2082281243  MEMB      113             0.0000000000
     13173       113  CHL1      H19C            2.8630927930      -20.5066211466      -16.6225132393  MEMB      113             0.0000000000
     13174       113  CHL1      C1              2.1977208390      -17.9535761371      -15.5196802166  MEMB      113             0.0000000000
     13175       113  CHL1      H1A             1.1767152700      -18.3540087220      -15.3398125658  MEMB      113             0.0000000000
     13176       113  CHL1      H1B             2.3191770497      -17.0361723450      -14.9020209954  MEMB      113             0.0000000000
     13177       113  CHL1      C2              2.2987162098      -17.5248777735      -16.9824819749  MEMB      113             0.0000000000
     13178       113  CHL1      H2A             1.5985171768      -16.6877543831      -17.1849019024  MEMB      113             0.0000000000
     13179       113  CHL1      H2B             2.0222195611      -18.3750037158      -17.6430412336  MEMB      113             0.0000000000
     13180       113  CHL1      C20             2.9421551793      -19.9481623666       -8.0102618712  MEMB      113             0.0000000000
     13181       113  CHL1      H20             3.2578011721      -20.9941031222       -7.7771857333  MEMB      113             0.0000000000
     13182       113  CHL1      C21             1.4139701848      -19.9519185011       -8.1471002516  MEMB      113             0.0000000000
     13183       113  CHL1      H21A            1.0703810850      -20.5868110302       -8.9836912540  MEMB      113             0.0000000000
     13184       113  CHL1      H21B            1.0204654745      -18.9220316428       -8.2641792811  MEMB      113             0.0000000000
     13185       113  CHL1      H21C            0.9942749031      -20.3774971519       -7.2172478533  MEMB      113             0.0000000000
     13186       113  CHL1      C22             3.3191702145      -19.0543142032       -6.8061643226  MEMB      113             0.0000000000
     13187       113  CHL1      H22A            4.4168150124      -18.8778760415       -6.7964166906  MEMB      113             0.0000000000
     13188       113  CHL1      H22B            2.8308751235      -18.0598689385       -6.9115164970  MEMB      113             0.0000000000
     13189       113  CHL1      C23             2.9239322712      -19.6852469285       -5.4693763649  MEMB      113             0.0000000000
     13190       113  CHL1      H23A            1.8313173675      -19.5576685752       -5.3023645980  MEMB      113             0.0000000000
     13191       113  CHL1      H23B            3.1405214901      -20.7763415298       -5.5225755234  MEMB      113             0.0000000000
     13192       113  CHL1      C24             3.7067602395      -19.0845446308       -4.3034369143  MEMB      113             0.0000000000
     13193       113  CHL1      H24A            4.7508949161      -18.8953959869       -4.6381615983  MEMB      113             0.0000000000
     13194       113  CHL1      H24B            3.2587165528      -18.1086402941       -4.0157011411  MEMB      113             0.0000000000
     13195       113  CHL1      C25             3.7939174943      -19.9984574948       -3.0718886834  MEMB      113             0.0000000000
     13196       113  CHL1      H25             4.2228857580      -20.9812644259       -3.3840074754  MEMB      113             0.0000000000
     13197       113  CHL1      C26             4.7311287417      -19.3503680732       -2.0451835802  MEMB      113             0.0000000000
     13198       113  CHL1      H26A            4.3424910298      -18.3495163977       -1.7550628842  MEMB      113             0.0000000000
     13199       113  CHL1      H26B            4.8137993055      -19.9751709298       -1.1317825739  MEMB      113             0.0000000000
     13200       113  CHL1      H26C            5.7403881566      -19.2167017342       -2.4893367468  MEMB      113             0.0000000000
     13201       113  CHL1      C27             2.4195425606      -20.2544711912       -2.4578286569  MEMB      113             0.0000000000
     13202       113  CHL1      H27A            2.0034227332      -19.2961166279       -2.0822799534  MEMB      113             0.0000000000
     13203       113  CHL1      H27B            1.7070309218      -20.6742432589       -3.1957593582  MEMB      113             0.0000000000
     13204       113  CHL1      H27C            2.4934468137      -20.9724897846       -1.6140592385  MEMB      113             0.0000000000
     13205       114  CHL1      C3             -4.3507992810      -16.5757495624      -17.4895380496  MEMB      114             0.0000000000
     13206       114  CHL1      H3             -4.3610440084      -15.4579981684      -17.4637613127  MEMB      114             0.0000000000
     13207       114  CHL1      O3             -4.5071151928      -17.0427985244      -18.8221133776  MEMB      114             0.0000000000
     13208       114  CHL1      H3'            -3.6764726081      -16.8294096332      -19.2895159817  MEMB      114             0.0000000000
     13209       114  CHL1      C4             -3.0031580913      -17.1008887620      -16.9610834383  MEMB      114             0.0000000000
     13210       114  CHL1      H4A            -2.9684921161      -18.1899011118      -17.1735225061  MEMB      114             0.0000000000
     13211       114  CHL1      H4B            -2.2073139578      -16.6340518796      -17.5877089261  MEMB      114             0.0000000000
     13212       114  CHL1      C5             -2.7719520795      -16.8872359785      -15.4772933084  MEMB      114             0.0000000000
     13213       114  CHL1      C6             -1.6503733503      -16.3126148507      -15.0130872362  MEMB      114             0.0000000000
     13214       114  CHL1      H6             -0.8613388099      -16.0221756663      -15.7226338126  MEMB      114             0.0000000000
     13215       114  CHL1      C7             -1.3495361235      -16.0981830218      -13.5531896953  MEMB      114             0.0000000000
     13216       114  CHL1      H7A            -0.3393498479      -16.4994944585      -13.3081660050  MEMB      114             0.0000000000
     13217       114  CHL1      H7B            -1.3306676830      -15.0090539376      -13.3385015126  MEMB      114             0.0000000000
     13218       114  CHL1      C8             -2.3608455859      -16.7793715531      -12.5886128685  MEMB      114             0.0000000000
     13219       114  CHL1      H8             -2.0289600692      -17.8338127434      -12.4799503917  MEMB      114             0.0000000000
     13220       114  CHL1      C14            -2.4011123369      -16.0879390952      -11.2228311756  MEMB      114             0.0000000000
     13221       114  CHL1      H14            -2.8861284173      -15.0943571020      -11.4106771110  MEMB      114             0.0000000000
     13222       114  CHL1      C15            -1.0856845881      -15.7392355360      -10.5111074139  MEMB      114             0.0000000000
     13223       114  CHL1      H15A           -0.4263101860      -16.6328584172      -10.4823270795  MEMB      114             0.0000000000
     13224       114  CHL1      H15B           -0.5501815139      -14.9068241241      -11.0085449528  MEMB      114             0.0000000000
     13225       114  CHL1      C16            -1.5566510776      -15.3637469309       -9.0902448278  MEMB      114             0.0000000000
     13226       114  CHL1      H16A           -0.9052783418      -15.8566690372       -8.3414974557  MEMB      114             0.0000000000
     13227       114  CHL1      H16B           -1.5132353984      -14.2647212598       -8.9384297118  MEMB      114             0.0000000000
     13228       114  CHL1      C17            -3.0449922511      -15.8380417184       -8.9518284433  MEMB      114             0.0000000000
     13229       114  CHL1      H17            -3.6795796315      -14.9401021274       -9.1438304587  MEMB      114             0.0000000000
     13230       114  CHL1      C13            -3.2690310986      -16.7719210189      -10.1626031369  MEMB      114             0.0000000000
     13231       114  CHL1      C18            -2.6701449710      -18.1531859561       -9.7982551443  MEMB      114             0.0000000000
     13232       114  CHL1      H18A           -3.3833439890      -18.7219491539       -9.1684057391  MEMB      114             0.0000000000
     13233       114  CHL1      H18B           -2.4652491471      -18.7565769481      -10.6996645005  MEMB      114             0.0000000000
     13234       114  CHL1      H18C           -1.7199657821      -18.0557889612       -9.2362629557  MEMB      114             0.0000000000
     13235       114  CHL1      C12            -4.7084545304      -16.8650691314      -10.7153889760  MEMB      114             0.0000000000
     13236       114  CHL1      H12A           -5.3572370649      -17.4736125507      -10.0569641594  MEMB      114             0.0000000000
     13237       114  CHL1      H12B           -5.1337877372      -15.8405626756      -10.7823675311  MEMB      114             0.0000000000
     13238       114  CHL1      C11            -4.7452571961      -17.4924939395      -12.1165660981  MEMB      114             0.0000000000
     13239       114  CHL1      H11A           -4.4346009480      -18.5531288086      -12.0044679513  MEMB      114             0.0000000000
     13240       114  CHL1      H11B           -5.7917650962      -17.4801992465      -12.4852443485  MEMB      114             0.0000000000
     13241       114  CHL1      C9             -3.7972415867      -16.7836626250      -13.1254264215  MEMB      114             0.0000000000
     13242       114  CHL1      H9             -4.1089216224      -15.7099238097      -13.1594917917  MEMB      114             0.0000000000
     13243       114  CHL1      C10            -3.9458572239      -17.3072714720      -14.5723625399  MEMB      114             0.0000000000
     13244       114  CHL1      C19            -3.9868148540      -18.8566272349      -14.4955013647  MEMB      114             0.0000000000
     13245       114  CHL1      H19A           -3.2171400061      -19.2224086935      -13.7845103738  MEMB      114             0.0000000000
     13246       114  CHL1      H19B           -4.9761518805      -19.1917729185      -14.1177761898  MEMB      114             0.0000000000
     13247       114  CHL1      H19C           -3.8218869184      -19.3496743170      -15.4733343513  MEMB      114             0.0000000000
     13248       114  CHL1      C1             -5.2835464451      -16.7523511994      -15.1560626827  MEMB      114             0.0000000000
     13249       114  CHL1      H1A            -6.1388179910      -17.1548928473      -14.5736611486  MEMB      114             0.0000000000
     13250       114  CHL1      H1B            -5.3056391151      -15.6446570907      -15.0378788037  MEMB      114             0.0000000000
     13251       114  CHL1      C2             -5.5122666731      -17.0923385731      -16.6361748743  MEMB      114             0.0000000000
     13252       114  CHL1      H2A            -6.4686410544      -16.6487285540      -16.9945919509  MEMB      114             0.0000000000
     13253       114  CHL1      H2B            -5.5846960976      -18.1956756588      -16.7491143577  MEMB      114             0.0000000000
     13254       114  CHL1      C20            -3.4034630160      -16.3412927587       -7.5366684243  MEMB      114             0.0000000000
     13255       114  CHL1      H20            -2.7737089229      -17.2307795145       -7.3023339311  MEMB      114             0.0000000000
     13256       114  CHL1      C21            -4.8852155083      -16.7806603081       -7.4765227711  MEMB      114             0.0000000000
     13257       114  CHL1      H21A           -5.1936125481      -17.0170568649       -6.4393438763  MEMB      114             0.0000000000
     13258       114  CHL1      H21B           -5.0381281448      -17.7067134514       -8.0642039035  MEMB      114             0.0000000000
     13259       114  CHL1      H21C           -5.5468884998      -15.9796544927       -7.8681186976  MEMB      114             0.0000000000
     13260       114  CHL1      C22            -3.1061090445      -15.2840573257       -6.4329522662  MEMB      114             0.0000000000
     13261       114  CHL1      H22A           -2.0348875833      -14.9915077624       -6.4891654322  MEMB      114             0.0000000000
     13262       114  CHL1      H22B           -3.7128145986      -14.3733272970       -6.6270369424  MEMB      114             0.0000000000
     13263       114  CHL1      C23            -3.3814106124      -15.7730207680       -4.9932540579  MEMB      114             0.0000000000
     13264       114  CHL1      H23A           -4.4809883314      -15.8226164478       -4.8269807508  MEMB      114             0.0000000000
     13265       114  CHL1      H23B           -2.9729264902      -16.8008163076       -4.8829253463  MEMB      114             0.0000000000
     13266       114  CHL1      C24            -2.7783515065      -14.8647639084       -3.9050278344  MEMB      114             0.0000000000
     13267       114  CHL1      H24A           -1.6739502385      -14.8203984832       -4.0253340520  MEMB      114             0.0000000000
     13268       114  CHL1      H24B           -3.1751917098      -13.8349322029       -4.0508493480  MEMB      114             0.0000000000
     13269       114  CHL1      C25            -3.1061141931      -15.3023289234       -2.4569524642  MEMB      114             0.0000000000
     13270       114  CHL1      H25            -4.2153814155      -15.3981010901       -2.3719612750  MEMB      114             0.0000000000
     13271       114  CHL1      C26            -2.4779253673      -16.6559034135       -2.0839281848  MEMB      114             0.0000000000
     13272       114  CHL1      H26A           -2.8598140740      -17.4733792380       -2.7289241605  MEMB      114             0.0000000000
     13273       114  CHL1      H26B           -1.3727639520      -16.6028329451       -2.1826984943  MEMB      114             0.0000000000
     13274       114  CHL1      H26C           -2.7196838224      -16.9056907407       -1.0281583009  MEMB      114             0.0000000000
     13275       114  CHL1      C27            -2.6488058017      -14.2384401098       -1.4463137879  MEMB      114             0.0000000000
     13276       114  CHL1      H27A           -2.8819599955      -14.5697313197       -0.4120321972  MEMB      114             0.0000000000
     13277       114  CHL1      H27B           -1.5526561498      -14.0739570805       -1.5235620212  MEMB      114             0.0000000000
     13278       114  CHL1      H27C           -3.1689361160      -13.2751930803       -1.6321917494  MEMB      114             0.0000000000
     13279       115  CHL1      C3             -0.9524533633       17.3335889292      -17.3455126734  MEMB      115             0.0000000000
     13280       115  CHL1      H3              0.1453502350       17.4307698101      -17.1764710803  MEMB      115             0.0000000000
     13281       115  CHL1      O3             -1.1906714099       17.3208750426      -18.7365048867  MEMB      115             0.0000000000
     13282       115  CHL1      H3'            -0.9090014873       16.4617528346      -19.0569215546  MEMB      115             0.0000000000
     13283       115  CHL1      C4             -1.4480346485       16.0070579450      -16.7400246762  MEMB      115             0.0000000000
     13284       115  CHL1      H4A            -2.4544453393       15.7660010441      -17.1476490988  MEMB      115             0.0000000000
     13285       115  CHL1      H4B            -0.7776435499       15.1914240400      -17.0956168917  MEMB      115             0.0000000000
     13286       115  CHL1      C5             -1.4967739627       16.0836120012      -15.2271030396  MEMB      115             0.0000000000
     13287       115  CHL1      C6             -0.8102114127       15.2487642674      -14.4425548510  MEMB      115             0.0000000000
     13288       115  CHL1      H6             -0.1969241818       14.4497030214      -14.8833805188  MEMB      115             0.0000000000
     13289       115  CHL1      C7             -0.9647616597       15.2482061402      -12.9534117605  MEMB      115             0.0000000000
     13290       115  CHL1      H7A            -0.8435521282       14.2305400400      -12.5397969353  MEMB      115             0.0000000000
     13291       115  CHL1      H7B            -0.1663622746       15.8725293135      -12.4956185687  MEMB      115             0.0000000000
     13292       115  CHL1      C8             -2.3437617707       15.8380575210      -12.5416685387  MEMB      115             0.0000000000
     13293       115  CHL1      H8             -3.1786070312       15.2286401231      -12.9550476260  MEMB      115             0.0000000000
     13294       115  CHL1      C14            -2.4251645889       15.8342412576      -11.0401022198  MEMB      115             0.0000000000
     13295       115  CHL1      H14            -1.4908557562       16.4034669565      -10.7845988524  MEMB      115             0.0000000000
     13296       115  CHL1      C15            -2.2949545630       14.4721585168      -10.3371862773  MEMB      115             0.0000000000
     13297       115  CHL1      H15A           -3.0509842032       13.7780323309      -10.7670858914  MEMB      115             0.0000000000
     13298       115  CHL1      H15B           -1.2850258550       14.0319386339      -10.4474126184  MEMB      115             0.0000000000
     13299       115  CHL1      C16            -2.6438894557       14.7871270291       -8.8764632330  MEMB      115             0.0000000000
     13300       115  CHL1      H16A           -3.5133749294       14.1708986333       -8.5691140687  MEMB      115             0.0000000000
     13301       115  CHL1      H16B           -1.7923636879       14.5678835886       -8.2031600140  MEMB      115             0.0000000000
     13302       115  CHL1      C17            -2.9938877613       16.3080469104       -8.9021178692  MEMB      115             0.0000000000
     13303       115  CHL1      H17            -1.9906199574       16.8080470025       -8.9314832986  MEMB      115             0.0000000000
     13304       115  CHL1      C13            -3.5608723537       16.5776521572      -10.3152856956  MEMB      115             0.0000000000
     13305       115  CHL1      C18            -4.9755762467       15.9475658421      -10.4808211319  MEMB      115             0.0000000000
     13306       115  CHL1      H18A           -5.7327345227       16.6281634228      -10.0256719489  MEMB      115             0.0000000000
     13307       115  CHL1      H18B           -5.2449290131       15.8371072962      -11.5509070227  MEMB      115             0.0000000000
     13308       115  CHL1      H18C           -5.0813705852       14.9632379815       -9.9854648440  MEMB      115             0.0000000000
     13309       115  CHL1      C12            -3.5818336861       18.0338832956      -10.7882777270  MEMB      115             0.0000000000
     13310       115  CHL1      H12A           -4.5142808198       18.5435476863      -10.4463750329  MEMB      115             0.0000000000
     13311       115  CHL1      H12B           -2.7677377380       18.5250934310      -10.2221666478  MEMB      115             0.0000000000
     13312       115  CHL1      C11            -3.4979894312       18.1202130181      -12.3512392256  MEMB      115             0.0000000000
     13313       115  CHL1      H11A           -4.4803781787       17.7555171517      -12.7099429411  MEMB      115             0.0000000000
     13314       115  CHL1      H11B           -3.3954105284       19.1819013572      -12.6535342280  MEMB      115             0.0000000000
     13315       115  CHL1      C9             -2.3971583610       17.2603575102      -13.0748709298  MEMB      115             0.0000000000
     13316       115  CHL1      H9             -1.4315442899       17.7277658385      -12.7847333430  MEMB      115             0.0000000000
     13317       115  CHL1      C10            -2.3582150738       17.2230656679      -14.6454532901  MEMB      115             0.0000000000
     13318       115  CHL1      C19            -3.8004486203       17.0553995791      -15.1518826428  MEMB      115             0.0000000000
     13319       115  CHL1      H19A           -4.2913325545       18.0143459055      -14.9690108402  MEMB      115             0.0000000000
     13320       115  CHL1      H19B           -3.8967539247       16.8857232126      -16.2421005688  MEMB      115             0.0000000000
     13321       115  CHL1      H19C           -4.3381193655       16.2464923950      -14.6193077752  MEMB      115             0.0000000000
     13322       115  CHL1      C1             -1.7171527378       18.5183239092      -15.2185551136  MEMB      115             0.0000000000
     13323       115  CHL1      H1A            -2.2652972732       19.4059385505      -14.8383471404  MEMB      115             0.0000000000
     13324       115  CHL1      H1B            -0.6708761406       18.5794120011      -14.8412436154  MEMB      115             0.0000000000
     13325       115  CHL1      C2             -1.6677040533       18.5633504109      -16.7608137407  MEMB      115             0.0000000000
     13326       115  CHL1      H2A            -1.1455765832       19.4841888805      -17.1099318276  MEMB      115             0.0000000000
     13327       115  CHL1      H2B            -2.7057053445       18.6040860539      -17.1605525474  MEMB      115             0.0000000000
     13328       115  CHL1      C20            -3.5647367925       16.9361540158       -7.6353789684  MEMB      115             0.0000000000
     13329       115  CHL1      H20            -3.7414365320       18.0220006514       -7.8144325306  MEMB      115             0.0000000000
     13330       115  CHL1      C21            -2.3921250466       16.8278540862       -6.6203556850  MEMB      115             0.0000000000
     13331       115  CHL1      H21A           -1.4557566632       17.2705956371       -7.0120142738  MEMB      115             0.0000000000
     13332       115  CHL1      H21B           -2.2026495763       15.7561445460       -6.3965821733  MEMB      115             0.0000000000
     13333       115  CHL1      H21C           -2.6229937851       17.3453249786       -5.6691529149  MEMB      115             0.0000000000
     13334       115  CHL1      C22            -4.8743920635       16.3229515886       -7.0908353667  MEMB      115             0.0000000000
     13335       115  CHL1      H22A           -5.7382346185       16.8752688877       -7.5284404200  MEMB      115             0.0000000000
     13336       115  CHL1      H22B           -4.9622372036       15.2682662857       -7.4262306724  MEMB      115             0.0000000000
     13337       115  CHL1      C23            -4.9689513556       16.3384142677       -5.5528528135  MEMB      115             0.0000000000
     13338       115  CHL1      H23A           -4.0540929628       15.9257050238       -5.0765769639  MEMB      115             0.0000000000
     13339       115  CHL1      H23B           -5.1241799463       17.3795318665       -5.1886465975  MEMB      115             0.0000000000
     13340       115  CHL1      C24            -6.0704779162       15.4383060120       -5.0306750983  MEMB      115             0.0000000000
     13341       115  CHL1      H24A           -7.0444056458       15.9502162399       -5.1751647049  MEMB      115             0.0000000000
     13342       115  CHL1      H24B           -6.0978540386       14.4959391271       -5.6264194465  MEMB      115             0.0000000000
     13343       115  CHL1      C25            -5.9241047849       15.0229858096       -3.5531792589  MEMB      115             0.0000000000
     13344       115  CHL1      H25            -5.1953270401       14.1779104826       -3.4922709806  MEMB      115             0.0000000000
     13345       115  CHL1      C26            -5.4464804163       16.1309527745       -2.5946050807  MEMB      115             0.0000000000
     13346       115  CHL1      H26A           -5.4966370211       15.7876447475       -1.5374243962  MEMB      115             0.0000000000
     13347       115  CHL1      H26B           -4.3974375253       16.4233209211       -2.8105899251  MEMB      115             0.0000000000
     13348       115  CHL1      H26C           -6.0825918478       17.0309284738       -2.7044804290  MEMB      115             0.0000000000
     13349       115  CHL1      C27            -7.3101282998       14.5173887877       -3.1848331876  MEMB      115             0.0000000000
     13350       115  CHL1      H27A           -7.6920802175       13.9680985614       -4.0704627455  MEMB      115             0.0000000000
     13351       115  CHL1      H27B           -7.3033775100       13.8587773666       -2.2966685559  MEMB      115             0.0000000000
     13352       115  CHL1      H27C           -8.0037256949       15.3608365262       -3.0083593209  MEMB      115             0.0000000000
     13353       116  SAPC      N             -14.1880904081       -9.5606676345      -19.0409121433  MEMB      116             0.0000000000
     13354       116  SAPC      C12           -15.1904730013      -10.3265333472      -19.9128737196  MEMB      116             0.0000000000
     13355       116  SAPC      H12A          -14.9064174056      -11.3712786287      -19.9770889964  MEMB      116             0.0000000000
     13356       116  SAPC      H12B          -15.1320278712       -9.9535744791      -20.9388214866  MEMB      116             0.0000000000
     13357       116  SAPC      C13           -14.2733331741       -8.0959282749      -19.3607713092  MEMB      116             0.0000000000
     13358       116  SAPC      H13A          -13.7246692137       -7.4780376352      -18.6637432792  MEMB      116             0.0000000000
     13359       116  SAPC      H13B          -13.9187536642       -7.9014783138      -20.3721660258  MEMB      116             0.0000000000
     13360       116  SAPC      H13C          -15.3134005052       -7.7759409030      -19.3751536613  MEMB      116             0.0000000000
     13361       116  SAPC      C14           -14.4768505503       -9.8222122905      -17.5953976251  MEMB      116             0.0000000000
     13362       116  SAPC      H14A          -14.2665066564      -10.8543548140      -17.3323026353  MEMB      116             0.0000000000
     13363       116  SAPC      H14B          -13.9163087361       -9.1807934633      -16.9340352073  MEMB      116             0.0000000000
     13364       116  SAPC      H14C          -15.5439026489       -9.6818805667      -17.4415151239  MEMB      116             0.0000000000
     13365       116  SAPC      C15           -12.8102805181      -10.0274425969      -19.3329929339  MEMB      116             0.0000000000
     13366       116  SAPC      H15A          -12.4885054557       -9.7923100492      -20.3492863035  MEMB      116             0.0000000000
     13367       116  SAPC      H15B          -12.0788039651       -9.5542726963      -18.6769092819  MEMB      116             0.0000000000
     13368       116  SAPC      H15C          -12.7065178319      -11.0947739113      -19.1666560039  MEMB      116             0.0000000000
     13369       116  SAPC      C11           -16.6866249389      -10.3025630615      -19.4857885291  MEMB      116             0.0000000000
     13370       116  SAPC      H11A          -16.7900425655      -10.7254109488      -18.4624472035  MEMB      116             0.0000000000
     13371       116  SAPC      H11B          -17.2628344766      -11.0142214928      -20.1285233946  MEMB      116             0.0000000000
     13372       116  SAPC      P             -17.6602787540       -8.3827848680      -20.9201803877  MEMB      116             0.0000000000
     13373       116  SAPC      O13           -16.5627697212       -8.6152166120      -21.8964758132  MEMB      116             0.0000000000
     13374       116  SAPC      O14           -19.0069313222       -8.8885008745      -21.2851352360  MEMB      116             0.0000000000
     13375       116  SAPC      O12           -17.2380141680       -8.9844989857      -19.5088003088  MEMB      116             0.0000000000
     13376       116  SAPC      O11           -17.7083311298       -6.8364516803      -20.6243399961  MEMB      116             0.0000000000
     13377       116  SAPC      C1            -18.7261067934       -6.0243250706      -21.1969161763  MEMB      116             0.0000000000
     13378       116  SAPC      HA            -18.3149954675       -5.5173608439      -22.0960555557  MEMB      116             0.0000000000
     13379       116  SAPC      HB            -19.6185592228       -6.6010776136      -21.5485035383  MEMB      116             0.0000000000
     13380       116  SAPC      C2            -19.2760899131       -4.9922581630      -20.1645527608  MEMB      116             0.0000000000
     13381       116  SAPC      HS            -19.9911146959       -4.3481780535      -20.7260053007  MEMB      116             0.0000000000
     13382       116  SAPC      O21           -18.3254365132       -4.1538170807      -19.4852665284  MEMB      116             0.0000000000
     13383       116  SAPC      C21           -17.2463032568       -3.7845658174      -20.1244966462  MEMB      116             0.0000000000
     13384       116  SAPC      O22           -17.0858565041       -3.6993653499      -21.3209682377  MEMB      116             0.0000000000
     13385       116  SAPC      C22           -16.2441778542       -3.3262641668      -19.0753334340  MEMB      116             0.0000000000
     13386       116  SAPC      H2R           -15.5119194286       -2.6802271213      -19.5874484399  MEMB      116             0.0000000000
     13387       116  SAPC      H2S           -16.8088127543       -2.6993084871      -18.3620626592  MEMB      116             0.0000000000
     13388       116  SAPC      C3            -20.0763085228       -5.6836343308      -19.0369427998  MEMB      116             0.0000000000
     13389       116  SAPC      HX            -20.8193765053       -6.3773602175      -19.4929312216  MEMB      116             0.0000000000
     13390       116  SAPC      HY            -20.6195396820       -4.8554532081      -18.5179413437  MEMB      116             0.0000000000
     13391       116  SAPC      O31           -19.2126363694       -6.4130382299      -18.1246358986  MEMB      116             0.0000000000
     13392       116  SAPC      C31           -19.9126352271       -6.8167731776      -17.0719466468  MEMB      116             0.0000000000
     13393       116  SAPC      O32           -20.9969542642       -6.3590305741      -16.7649426850  MEMB      116             0.0000000000
     13394       116  SAPC      C32           -19.2060414952       -7.9733724221      -16.3998168904  MEMB      116             0.0000000000
     13395       116  SAPC      H2X           -18.6602777301       -8.5662274465      -17.1669583224  MEMB      116             0.0000000000
     13396       116  SAPC      H2Y           -19.9837454422       -8.6217487484      -15.9428869001  MEMB      116             0.0000000000
     13397       116  SAPC      C23           -15.5574557387       -4.4702318714      -18.2808056053  MEMB      116             0.0000000000
     13398       116  SAPC      H3R           -14.6845209748       -4.8721935988      -18.8391856146  MEMB      116             0.0000000000
     13399       116  SAPC      H3S           -16.2712322856       -5.3204754489      -18.1639817279  MEMB      116             0.0000000000
     13400       116  SAPC      C24           -15.1377149652       -3.9746947789      -16.8769180804  MEMB      116             0.0000000000
     13401       116  SAPC      H4R           -15.9597297672       -3.3269878917      -16.4983479750  MEMB      116             0.0000000000
     13402       116  SAPC      H4S           -14.2599722832       -3.3036843402      -16.9746944530  MEMB      116             0.0000000000
     13403       116  SAPC      C25           -14.8333993718       -5.0584680890      -15.8723398618  MEMB      116             0.0000000000
     13404       116  SAPC      H5R           -14.2226672457       -5.8906462123      -16.2603671550  MEMB      116             0.0000000000
     13405       116  SAPC      C26           -15.2594656434       -5.0913589521      -14.5889027969  MEMB      116             0.0000000000
     13406       116  SAPC      H6R           -14.9370683756       -5.9278245003      -13.9455508942  MEMB      116             0.0000000000
     13407       116  SAPC      C27           -16.1249777319       -4.0604845082      -13.8895784821  MEMB      116             0.0000000000
     13408       116  SAPC      H7R           -16.7489970081       -3.4888268826      -14.6105215266  MEMB      116             0.0000000000
     13409       116  SAPC      H7S           -15.4765979051       -3.3065277614      -13.3943738283  MEMB      116             0.0000000000
     13410       116  SAPC      C28           -17.0645639459       -4.7150444544      -12.9098872588  MEMB      116             0.0000000000
     13411       116  SAPC      H8R           -17.8099860458       -5.3612764114      -13.3954724094  MEMB      116             0.0000000000
     13412       116  SAPC      C29           -17.1123567839       -4.5987699035      -11.5685241097  MEMB      116             0.0000000000
     13413       116  SAPC      H9R           -17.8845773495       -5.1792027542      -11.0421805177  MEMB      116             0.0000000000
     13414       116  SAPC      C210          -16.2289238471       -3.7725331691      -10.6628142682  MEMB      116             0.0000000000
     13415       116  SAPC      H10R          -15.6433035410       -3.0190984915      -11.2344344925  MEMB      116             0.0000000000
     13416       116  SAPC      H10S          -15.4794639649       -4.4446292796      -10.1860875600  MEMB      116             0.0000000000
     13417       116  SAPC      C211          -17.0306012306       -3.0681546367       -9.5938694656  MEMB      116             0.0000000000
     13418       116  SAPC      H11R          -17.2375931184       -2.0140530039       -9.7903599595  MEMB      116             0.0000000000
     13419       116  SAPC      C212          -17.4276550654       -3.5448320267       -8.4042431854  MEMB      116             0.0000000000
     13420       116  SAPC      H12R          -18.0155538320       -2.8875063995       -7.7401303357  MEMB      116             0.0000000000
     13421       116  SAPC      C213          -17.1428793403       -4.9199791372       -7.8789461870  MEMB      116             0.0000000000
     13422       116  SAPC      H13R          -16.1361936972       -4.8754074276       -7.4115374621  MEMB      116             0.0000000000
     13423       116  SAPC      H13S          -17.0521583317       -5.6712282795       -8.6925932726  MEMB      116             0.0000000000
     13424       116  SAPC      C214          -18.1973595847       -5.3523092040       -6.8899890121  MEMB      116             0.0000000000
     13425       116  SAPC      H14R          -19.2158985718       -5.4629482308       -7.2971733753  MEMB      116             0.0000000000
     13426       116  SAPC      C215          -17.9833142976       -5.5949816241       -5.5849735005  MEMB      116             0.0000000000
     13427       116  SAPC      H15R          -18.8251286267       -5.9146298879       -4.9511799863  MEMB      116             0.0000000000
     13428       116  SAPC      C216          -16.6519040937       -5.4758180323       -4.8884330501  MEMB      116             0.0000000000
     13429       116  SAPC      H16R          -16.7936477797       -5.5790241558       -3.7947958613  MEMB      116             0.0000000000
     13430       116  SAPC      H16S          -16.2697636736       -4.4429507222       -5.0507833925  MEMB      116             0.0000000000
     13431       116  SAPC      C217          -15.5318936792       -6.4330694291       -5.3639472146  MEMB      116             0.0000000000
     13432       116  SAPC      H17R          -14.5712559873       -5.8928401708       -5.2649117257  MEMB      116             0.0000000000
     13433       116  SAPC      H17S          -15.6488938373       -6.6950453013       -6.4379011788  MEMB      116             0.0000000000
     13434       116  SAPC      C218          -15.3592782581       -7.7248122582       -4.5697144473  MEMB      116             0.0000000000
     13435       116  SAPC      H18R          -14.5592312804       -8.3298958624       -5.0590065239  MEMB      116             0.0000000000
     13436       116  SAPC      H18S          -16.2846212888       -8.3228051615       -4.6309058809  MEMB      116             0.0000000000
     13437       116  SAPC      C219          -14.9604879992       -7.5019454213       -3.1114894997  MEMB      116             0.0000000000
     13438       116  SAPC      H19R          -15.6856062025       -6.8456719549       -2.5832095248  MEMB      116             0.0000000000
     13439       116  SAPC      H19S          -13.9796780946       -6.9852795828       -3.0946710388  MEMB      116             0.0000000000
     13440       116  SAPC      C220          -14.8564211084       -8.8271288990       -2.3746266314  MEMB      116             0.0000000000
     13441       116  SAPC      H20R          -14.3668261787       -9.5776667374       -3.0298735794  MEMB      116             0.0000000000
     13442       116  SAPC      H20S          -15.8608209950       -9.2107923906       -2.1248810767  MEMB      116             0.0000000000
     13443       116  SAPC      H20T          -14.2719164420       -8.7143495613       -1.4381121207  MEMB      116             0.0000000000
     13444       116  SAPC      C33           -18.2420376698       -7.4429893691      -15.3299493287  MEMB      116             0.0000000000
     13445       116  SAPC      H3X           -18.8152389424       -6.8294387823      -14.5978642814  MEMB      116             0.0000000000
     13446       116  SAPC      H3Y           -17.4816248862       -6.7771734968      -15.7971120152  MEMB      116             0.0000000000
     13447       116  SAPC      C34           -17.5127061345       -8.5748919856      -14.6102679501  MEMB      116             0.0000000000
     13448       116  SAPC      H4X           -16.5174690159       -8.2118633341      -14.2673782708  MEMB      116             0.0000000000
     13449       116  SAPC      H4Y           -17.3411925696       -9.4097296584      -15.3270778623  MEMB      116             0.0000000000
     13450       116  SAPC      C35           -18.3055489696       -9.0734295687      -13.4046474056  MEMB      116             0.0000000000
     13451       116  SAPC      H5X           -17.9244834564      -10.0734900983      -13.0969599293  MEMB      116             0.0000000000
     13452       116  SAPC      H5Y           -19.3777541460       -9.1875512723      -13.6886270205  MEMB      116             0.0000000000
     13453       116  SAPC      C36           -18.2104009360       -8.1171188227      -12.2107328638  MEMB      116             0.0000000000
     13454       116  SAPC      H6X           -18.7267774364       -7.1619404641      -12.4523141257  MEMB      116             0.0000000000
     13455       116  SAPC      H6Y           -17.1451156027       -7.8831813096      -11.9836280082  MEMB      116             0.0000000000
     13456       116  SAPC      C37           -18.8612754373       -8.7371168357      -10.9803027248  MEMB      116             0.0000000000
     13457       116  SAPC      H7X           -18.2530057269       -9.6098972271      -10.6584399486  MEMB      116             0.0000000000
     13458       116  SAPC      H7Y           -19.8451313187       -9.1328319896      -11.2895728005  MEMB      116             0.0000000000
     13459       116  SAPC      C38           -19.0516691348       -7.7550407708       -9.8220229002  MEMB      116             0.0000000000
     13460       116  SAPC      H8X           -19.9573739207       -7.1372640445      -10.0213955154  MEMB      116             0.0000000000
     13461       116  SAPC      H8Y           -18.1796100326       -7.0706329363       -9.7652749244  MEMB      116             0.0000000000
     13462       116  SAPC      C39           -19.2052515504       -8.4851264892       -8.4846296027  MEMB      116             0.0000000000
     13463       116  SAPC      H9X           -19.8532954015       -9.3706671891       -8.6472983460  MEMB      116             0.0000000000
     13464       116  SAPC      H9Y           -19.7093651251       -7.8231175056       -7.7472587729  MEMB      116             0.0000000000
     13465       116  SAPC      C310          -17.8654118221       -8.9513347477       -7.8999214152  MEMB      116             0.0000000000
     13466       116  SAPC      H10X          -17.2540467663       -8.0652051193       -7.6178501408  MEMB      116             0.0000000000
     13467       116  SAPC      H10Y          -17.2962318322       -9.5085908101       -8.6774262078  MEMB      116             0.0000000000
     13468       116  SAPC      C311          -18.0302633839       -9.8647138104       -6.6761477147  MEMB      116             0.0000000000
     13469       116  SAPC      H11X          -17.0136881481      -10.2084161599       -6.3773716358  MEMB      116             0.0000000000
     13470       116  SAPC      H11Y          -18.6222971103      -10.7541920587       -6.9695434343  MEMB      116             0.0000000000
     13471       116  SAPC      C312          -18.7086142428       -9.1855931730       -5.4757316442  MEMB      116             0.0000000000
     13472       116  SAPC      H12X          -19.8050998324       -9.1083096226       -5.6353447558  MEMB      116             0.0000000000
     13473       116  SAPC      H12Y          -18.3056284071       -8.1552755301       -5.4231296883  MEMB      116             0.0000000000
     13474       116  SAPC      C313          -18.4167658572       -9.8829088143       -4.1380759966  MEMB      116             0.0000000000
     13475       116  SAPC      H13X          -17.3949951301      -10.3305038017       -4.1902077617  MEMB      116             0.0000000000
     13476       116  SAPC      H13Y          -19.1380114304      -10.7105375100       -3.9991180261  MEMB      116             0.0000000000
     13477       116  SAPC      C314          -18.4214224127       -8.9579405020       -2.9071963281  MEMB      116             0.0000000000
     13478       116  SAPC      H14X          -17.5704145739       -8.2508123526       -2.9919824594  MEMB      116             0.0000000000
     13479       116  SAPC      H14Y          -18.2575166175       -9.5770364380       -1.9960736630  MEMB      116             0.0000000000
     13480       116  SAPC      C315          -19.6598166029       -8.0848398043       -2.6821517554  MEMB      116             0.0000000000
     13481       116  SAPC      H15X          -20.5197873160       -8.7520746567       -2.4937755769  MEMB      116             0.0000000000
     13482       116  SAPC      H15Y          -19.8688466218       -7.4766242593       -3.5881853858  MEMB      116             0.0000000000
     13483       116  SAPC      C316          -19.4201710321       -7.1691079128       -1.4715538231  MEMB      116             0.0000000000
     13484       116  SAPC      H16X          -18.4227454920       -6.6926256381       -1.6076496217  MEMB      116             0.0000000000
     13485       116  SAPC      H16Y          -19.3689408352       -7.7955455260       -0.5542246027  MEMB      116             0.0000000000
     13486       116  SAPC      C317          -20.4204088128       -6.0309638852       -1.2447227026  MEMB      116             0.0000000000
     13487       116  SAPC      H17X          -21.4387192061       -6.4368260520       -1.0672533564  MEMB      116             0.0000000000
     13488       116  SAPC      H17Y          -20.4634827171       -5.3946209330       -2.1570205071  MEMB      116             0.0000000000
     13489       116  SAPC      C318          -19.9992570697       -5.1726494892       -0.0471104319  MEMB      116             0.0000000000
     13490       116  SAPC      H18X          -20.0460616262       -5.7635210806        0.8927551978  MEMB      116             0.0000000000
     13491       116  SAPC      H18Y          -20.6489036339       -4.2800252434        0.0673502371  MEMB      116             0.0000000000
     13492       116  SAPC      H18Z          -18.9494701962       -4.8295307635       -0.1745576141  MEMB      116             0.0000000000
     13493       117  CHL1      C3             17.1919446742       -8.4454799839      -17.4836139634  MEMB      117             0.0000000000
     13494       117  CHL1      H3             16.1182710507       -8.7120961256      -17.6313245633  MEMB      117             0.0000000000
     13495       117  CHL1      O3             17.8837988354       -8.4878165049      -18.7269822300  MEMB      117             0.0000000000
     13496       117  CHL1      H3'            17.2728374074       -8.0664847571      -19.3623521598  MEMB      117             0.0000000000
     13497       117  CHL1      C4             17.2590912700       -6.9899160042      -16.9603581607  MEMB      117             0.0000000000
     13498       117  CHL1      H4A            18.2220495532       -6.5554391518      -17.2976963763  MEMB      117             0.0000000000
     13499       117  CHL1      H4B            16.4932570785       -6.4197067578      -17.5217750926  MEMB      117             0.0000000000
     13500       117  CHL1      C5             17.1413544822       -6.7705616671      -15.4637894327  MEMB      117             0.0000000000
     13501       117  CHL1      C6             16.4508287555       -5.7612961986      -14.9210824195  MEMB      117             0.0000000000
     13502       117  CHL1      H6             15.9143669882       -5.0611748512      -15.5748183355  MEMB      117             0.0000000000
     13503       117  CHL1      C7             16.4795662442       -5.4507385328      -13.4510148535  MEMB      117             0.0000000000
     13504       117  CHL1      H7A            16.5629684956       -4.3629973711      -13.2558478917  MEMB      117             0.0000000000
     13505       117  CHL1      H7B            15.5280196479       -5.7753526557      -13.0109356240  MEMB      117             0.0000000000
     13506       117  CHL1      C8             17.5663923985       -6.1882206942      -12.6313163955  MEMB      117             0.0000000000
     13507       117  CHL1      H8             18.5419682529       -5.6685303550      -12.7566626489  MEMB      117             0.0000000000
     13508       117  CHL1      C14            17.1553733029       -6.2034323819      -11.1670885151  MEMB      117             0.0000000000
     13509       117  CHL1      H14            16.2288951844       -6.8338180395      -11.1564894106  MEMB      117             0.0000000000
     13510       117  CHL1      C15            16.7263344049       -4.8834296506      -10.4954299304  MEMB      117             0.0000000000
     13511       117  CHL1      H15A           17.4796799467       -4.0899529444      -10.6879786282  MEMB      117             0.0000000000
     13512       117  CHL1      H15B           15.7386927293       -4.5447830362      -10.8595025226  MEMB      117             0.0000000000
     13513       117  CHL1      C16            16.7017262331       -5.2513926966       -9.0040772235  MEMB      117             0.0000000000
     13514       117  CHL1      H16A           17.3583040022       -4.5541589209       -8.4453439004  MEMB      117             0.0000000000
     13515       117  CHL1      H16B           15.6915938495       -5.2056883761       -8.5556407942  MEMB      117             0.0000000000
     13516       117  CHL1      C17            17.2587376357       -6.7066889153       -8.9100936443  MEMB      117             0.0000000000
     13517       117  CHL1      H17            16.3866461033       -7.3891119409       -9.0485097913  MEMB      117             0.0000000000
     13518       117  CHL1      C13            18.0978058327       -6.9009748816      -10.1917795460  MEMB      117             0.0000000000
     13519       117  CHL1      C18            19.4280121138       -6.1097020860      -10.1006890054  MEMB      117             0.0000000000
     13520       117  CHL1      H18A           19.9748438561       -6.1484229360      -11.0633534726  MEMB      117             0.0000000000
     13521       117  CHL1      H18B           19.2673603166       -5.0469019836       -9.8425256289  MEMB      117             0.0000000000
     13522       117  CHL1      H18C           20.1011852706       -6.5273152883       -9.3307878747  MEMB      117             0.0000000000
     13523       117  CHL1      C12            18.2944704749       -8.3527373610      -10.6819050772  MEMB      117             0.0000000000
     13524       117  CHL1      H12A           19.0525194395       -8.8692487041      -10.0683378823  MEMB      117             0.0000000000
     13525       117  CHL1      H12B           17.3373867251       -8.9049844007      -10.5658233185  MEMB      117             0.0000000000
     13526       117  CHL1      C11            18.7031675514       -8.3952760543      -12.1692920716  MEMB      117             0.0000000000
     13527       117  CHL1      H11A           19.6975199993       -7.9100097129      -12.2502619091  MEMB      117             0.0000000000
     13528       117  CHL1      H11B           18.8212412192       -9.4484214693      -12.4900584372  MEMB      117             0.0000000000
     13529       117  CHL1      C9             17.6915723126       -7.6422968585      -13.0833947516  MEMB      117             0.0000000000
     13530       117  CHL1      H9             16.6994753913       -8.1162602280      -12.8835799384  MEMB      117             0.0000000000
     13531       117  CHL1      C10            17.8917065815       -7.7931879437      -14.6149994117  MEMB      117             0.0000000000
     13532       117  CHL1      C19            19.3664467038       -7.6152239012      -14.9376577262  MEMB      117             0.0000000000
     13533       117  CHL1      H19A           19.8760930431       -7.0028078594      -14.1685962361  MEMB      117             0.0000000000
     13534       117  CHL1      H19B           19.8033600425       -8.6303917776      -14.9616563932  MEMB      117             0.0000000000
     13535       117  CHL1      H19C           19.6095261951       -7.1965860456      -15.9297420043  MEMB      117             0.0000000000
     13536       117  CHL1      C1             17.4753883139       -9.2194034410      -15.0602091254  MEMB      117             0.0000000000
     13537       117  CHL1      H1A            18.0317141201       -9.9602365799      -14.4452986338  MEMB      117             0.0000000000
     13538       117  CHL1      H1B            16.3907376341       -9.3650922090      -14.8756968600  MEMB      117             0.0000000000
     13539       117  CHL1      C2             17.8055236273       -9.4914148202      -16.5363113787  MEMB      117             0.0000000000
     13540       117  CHL1      H2A            17.4591774782      -10.5042177170      -16.8354697446  MEMB      117             0.0000000000
     13541       117  CHL1      H2B            18.9090772834       -9.5034269396      -16.6618029106  MEMB      117             0.0000000000
     13542       117  CHL1      C20            17.8193563660       -6.9988066825       -7.5211766157  MEMB      117             0.0000000000
     13543       117  CHL1      H20            18.4432401436       -6.1279175016       -7.2242681064  MEMB      117             0.0000000000
     13544       117  CHL1      C21            18.7316178063       -8.2235376537       -7.4777194141  MEMB      117             0.0000000000
     13545       117  CHL1      H21A           18.2365932953       -9.1317717467       -7.8703313453  MEMB      117             0.0000000000
     13546       117  CHL1      H21B           19.0844690706       -8.4105884098       -6.4384188565  MEMB      117             0.0000000000
     13547       117  CHL1      H21C           19.5987890558       -8.0236051763       -8.1186298453  MEMB      117             0.0000000000
     13548       117  CHL1      C22            16.7065002021       -7.1584207707       -6.4643519877  MEMB      117             0.0000000000
     13549       117  CHL1      H22A           17.1877219676       -7.2865543324       -5.4688972942  MEMB      117             0.0000000000
     13550       117  CHL1      H22B           16.1164838699       -6.2180065345       -6.4437159382  MEMB      117             0.0000000000
     13551       117  CHL1      C23            15.7378116490       -8.3291604561       -6.7125342510  MEMB      117             0.0000000000
     13552       117  CHL1      H23A           14.9287544915       -7.9700068753       -7.3886244087  MEMB      117             0.0000000000
     13553       117  CHL1      H23B           16.2451182358       -9.1747451506       -7.2172244335  MEMB      117             0.0000000000
     13554       117  CHL1      C24            15.1029328178       -8.8406780583       -5.4208833023  MEMB      117             0.0000000000
     13555       117  CHL1      H24A           15.8814610067       -9.1582952552       -4.6933914289  MEMB      117             0.0000000000
     13556       117  CHL1      H24B           14.5542038129       -7.9867980463       -4.9712307632  MEMB      117             0.0000000000
     13557       117  CHL1      C25            14.0833886089       -9.9754518977       -5.6171012224  MEMB      117             0.0000000000
     13558       117  CHL1      H25            13.4628122483       -9.7355608525       -6.5148184784  MEMB      117             0.0000000000
     13559       117  CHL1      C26            14.7336835864      -11.3527054002       -5.8548346367  MEMB      117             0.0000000000
     13560       117  CHL1      H26A           13.9587986529      -12.1077635157       -6.1131144555  MEMB      117             0.0000000000
     13561       117  CHL1      H26B           15.4549699395      -11.3103035061       -6.6994107756  MEMB      117             0.0000000000
     13562       117  CHL1      H26C           15.2744587414      -11.7061880985       -4.9534095243  MEMB      117             0.0000000000
     13563       117  CHL1      C27            13.1663171204       -9.9664530667       -4.3876181144  MEMB      117             0.0000000000
     13564       117  CHL1      H27A           12.4987492454       -9.0805762183       -4.4398260238  MEMB      117             0.0000000000
     13565       117  CHL1      H27B           12.5508021988      -10.8837650529       -4.3230613685  MEMB      117             0.0000000000
     13566       117  CHL1      H27C           13.7725084805       -9.8625395268       -3.4622673748  MEMB      117             0.0000000000
     13567       118  CHL1      C3              7.0092741240       17.4924571377      -17.5670645132  MEMB      118             0.0000000000
     13568       118  CHL1      H3              6.3472468892       16.5969828951      -17.5203491894  MEMB      118             0.0000000000
     13569       118  CHL1      O3              7.4222800856       17.7212938492      -18.9009751799  MEMB      118             0.0000000000
     13570       118  CHL1      H3'             6.6427610594       17.9894265049      -19.4285232235  MEMB      118             0.0000000000
     13571       118  CHL1      C4              6.2477218792       18.7301480450      -17.0779413949  MEMB      118             0.0000000000
     13572       118  CHL1      H4A             6.8005870917       19.6451906063      -17.3762625660  MEMB      118             0.0000000000
     13573       118  CHL1      H4B             5.2825730763       18.7931099682      -17.6288977499  MEMB      118             0.0000000000
     13574       118  CHL1      C5              6.0364582129       18.7505303543      -15.5800198386  MEMB      118             0.0000000000
     13575       118  CHL1      C6              4.8525215859       19.0442349412      -15.0507467753  MEMB      118             0.0000000000
     13576       118  CHL1      H6              4.0190599580       19.3102202987      -15.7155729417  MEMB      118             0.0000000000
     13577       118  CHL1      C7              4.6630640551       19.2300754718      -13.5792699596  MEMB      118             0.0000000000
     13578       118  CHL1      H7A             4.2852464804       20.2431237569      -13.3745228086  MEMB      118             0.0000000000
     13579       118  CHL1      H7B             3.9457495332       18.4889475827      -13.1762375617  MEMB      118             0.0000000000
     13580       118  CHL1      C8              5.9611244730       19.2601341785      -12.7568612817  MEMB      118             0.0000000000
     13581       118  CHL1      H8              6.3869324881       20.2829304848      -12.8778503517  MEMB      118             0.0000000000
     13582       118  CHL1      C14             5.6526193345       19.0154339622      -11.3123469716  MEMB      118             0.0000000000
     13583       118  CHL1      H14             5.3095126498       17.9677735663      -11.2504844486  MEMB      118             0.0000000000
     13584       118  CHL1      C15             4.4635360713       19.7600323250      -10.7504791714  MEMB      118             0.0000000000
     13585       118  CHL1      H15A            4.5051593243       20.8224706855      -11.0720044630  MEMB      118             0.0000000000
     13586       118  CHL1      H15B            3.5191182503       19.3057591249      -11.1075955032  MEMB      118             0.0000000000
     13587       118  CHL1      C16             4.6810394307       19.5935734656       -9.2531315398  MEMB      118             0.0000000000
     13588       118  CHL1      H16A            4.6975266723       20.5860273716       -8.7838850567  MEMB      118             0.0000000000
     13589       118  CHL1      H16B            3.9288967512       18.9399780957       -8.7710610841  MEMB      118             0.0000000000
     13590       118  CHL1      C17             6.0581049568       18.9794869996       -9.0094022922  MEMB      118             0.0000000000
     13591       118  CHL1      H17             5.8746909292       17.8969242155       -8.9736323879  MEMB      118             0.0000000000
     13592       118  CHL1      C13             6.8013235701       19.2122273020      -10.3308298350  MEMB      118             0.0000000000
     13593       118  CHL1      C18             7.2201312413       20.6898817734      -10.4276615455  MEMB      118             0.0000000000
     13594       118  CHL1      H18A            7.9297444482       20.9263360432       -9.6279519974  MEMB      118             0.0000000000
     13595       118  CHL1      H18B            7.6973009465       20.9430209771      -11.3916734577  MEMB      118             0.0000000000
     13596       118  CHL1      H18C            6.3748219406       21.3908654212      -10.2938435749  MEMB      118             0.0000000000
     13597       118  CHL1      C12             7.9128379018       18.2173798458      -10.7056252199  MEMB      118             0.0000000000
     13598       118  CHL1      H12A            8.8223240625       18.4672072160      -10.1235938574  MEMB      118             0.0000000000
     13599       118  CHL1      H12B            7.6375436232       17.1882948862      -10.4196470215  MEMB      118             0.0000000000
     13600       118  CHL1      C11             8.1862063527       18.2857299421      -12.2314362704  MEMB      118             0.0000000000
     13601       118  CHL1      H11A            8.5047096707       19.3280909465      -12.3348918264  MEMB      118             0.0000000000
     13602       118  CHL1      H11B            8.9960679914       17.5985415975      -12.5319957133  MEMB      118             0.0000000000
     13603       118  CHL1      C9              6.9647998194       18.2327749081      -13.2043812068  MEMB      118             0.0000000000
     13604       118  CHL1      H9              6.4976028638       17.2271956510      -13.0896565376  MEMB      118             0.0000000000
     13605       118  CHL1      C10             7.2648778161       18.4270219298      -14.7192035352  MEMB      118             0.0000000000
     13606       118  CHL1      C19             8.1802108722       19.6517741338      -14.9195424531  MEMB      118             0.0000000000
     13607       118  CHL1      H19A            7.8732503791       20.5208552755      -14.3027866644  MEMB      118             0.0000000000
     13608       118  CHL1      H19B            9.1890707563       19.3165173082      -14.6326188702  MEMB      118             0.0000000000
     13609       118  CHL1      H19C            8.2591529759       20.0043061111      -15.9649052511  MEMB      118             0.0000000000
     13610       118  CHL1      C1              7.9616862379       17.1499920248      -15.2432684085  MEMB      118             0.0000000000
     13611       118  CHL1      H1A             8.9089164383       17.0055410992      -14.6796197127  MEMB      118             0.0000000000
     13612       118  CHL1      H1B             7.3119194292       16.2717256371      -15.0382348420  MEMB      118             0.0000000000
     13613       118  CHL1      C2              8.2727832703       17.2186598944      -16.7386466354  MEMB      118             0.0000000000
     13614       118  CHL1      H2A             8.7452604150       16.2752613149      -17.0859110080  MEMB      118             0.0000000000
     13615       118  CHL1      H2B             9.0072950269       18.0371256726      -16.8843632524  MEMB      118             0.0000000000
     13616       118  CHL1      C20             6.5302365009       19.2965226902       -7.5839708112  MEMB      118             0.0000000000
     13617       118  CHL1      H20             5.6206147985       19.0691437128       -6.9642848267  MEMB      118             0.0000000000
     13618       118  CHL1      C21             6.8098303743       20.7961108471       -7.3095200475  MEMB      118             0.0000000000
     13619       118  CHL1      H21A            7.8954746346       20.9871444499       -7.2693821240  MEMB      118             0.0000000000
     13620       118  CHL1      H21B            6.3499305632       21.1052227083       -6.3477385123  MEMB      118             0.0000000000
     13621       118  CHL1      H21C            6.3946042476       21.4561327203       -8.0925923277  MEMB      118             0.0000000000
     13622       118  CHL1      C22             7.5795998092       18.3287769046       -7.0054478017  MEMB      118             0.0000000000
     13623       118  CHL1      H22A            7.2894193250       17.2730679895       -7.1933738380  MEMB      118             0.0000000000
     13624       118  CHL1      H22B            8.5545174798       18.5210681803       -7.5061541478  MEMB      118             0.0000000000
     13625       118  CHL1      C23             7.7623138085       18.5258780708       -5.4971738466  MEMB      118             0.0000000000
     13626       118  CHL1      H23A            8.6072576133       17.9073095020       -5.1264216139  MEMB      118             0.0000000000
     13627       118  CHL1      H23B            8.0677114981       19.5791707446       -5.3812635579  MEMB      118             0.0000000000
     13628       118  CHL1      C24             6.5603341397       18.3049747253       -4.5591743882  MEMB      118             0.0000000000
     13629       118  CHL1      H24A            5.6752769836       18.9079308719       -4.8625283919  MEMB      118             0.0000000000
     13630       118  CHL1      H24B            6.2695688181       17.2349385903       -4.5529001914  MEMB      118             0.0000000000
     13631       118  CHL1      C25             6.9936565031       18.7656327307       -3.1545144373  MEMB      118             0.0000000000
     13632       118  CHL1      H25             8.0215983787       18.3531519016       -2.9997828233  MEMB      118             0.0000000000
     13633       118  CHL1      C26             7.1257781542       20.2999066359       -3.1416423872  MEMB      118             0.0000000000
     13634       118  CHL1      H26A            8.0923272343       20.6206334425       -3.5648120975  MEMB      118             0.0000000000
     13635       118  CHL1      H26B            6.3427551005       20.7917145808       -3.7557607453  MEMB      118             0.0000000000
     13636       118  CHL1      H26C            7.1135035307       20.6750910127       -2.0994336442  MEMB      118             0.0000000000
     13637       118  CHL1      C27             6.1729977041       18.1909209178       -1.9821972295  MEMB      118             0.0000000000
     13638       118  CHL1      H27A            5.1112691068       18.5095563495       -2.0058450224  MEMB      118             0.0000000000
     13639       118  CHL1      H27B            6.2231800397       17.0808359324       -2.0238596100  MEMB      118             0.0000000000
     13640       118  CHL1      H27C            6.6204759065       18.5036961304       -1.0097771238  MEMB      118             0.0000000000
     13641       119  CHL1      C3            -19.9987225537       -1.5556589026      -17.3894312445  MEMB      119             0.0000000000
     13642       119  CHL1      H3            -19.9066603757       -2.5837806244      -16.9765807417  MEMB      119             0.0000000000
     13643       119  CHL1      O3            -20.1519613695       -1.6401717337      -18.7982024006  MEMB      119             0.0000000000
     13644       119  CHL1      H3'           -19.4333625986       -2.1946076820      -19.1341863942  MEMB      119             0.0000000000
     13645       119  CHL1      C4            -21.2320059255       -0.9006685686      -16.7404599411  MEMB      119             0.0000000000
     13646       119  CHL1      H4A           -21.3950137588        0.0988964934      -17.1908324859  MEMB      119             0.0000000000
     13647       119  CHL1      H4B           -22.1260031440       -1.5143215328      -16.9887661331  MEMB      119             0.0000000000
     13648       119  CHL1      C5            -21.0600010326       -0.7917757879      -15.2372393057  MEMB      119             0.0000000000
     13649       119  CHL1      C6            -21.9518807461       -1.3244792323      -14.3848418403  MEMB      119             0.0000000000
     13650       119  CHL1      H6            -22.8750024610       -1.7917434305      -14.7746294413  MEMB      119             0.0000000000
     13651       119  CHL1      C7            -21.7939434484       -1.2886146635      -12.8907945025  MEMB      119             0.0000000000
     13652       119  CHL1      H7A           -22.7631218591       -1.0832297172      -12.3917673996  MEMB      119             0.0000000000
     13653       119  CHL1      H7B           -21.4548678680       -2.2949083435      -12.5600729582  MEMB      119             0.0000000000
     13654       119  CHL1      C8            -20.7388929893       -0.2549652622      -12.4118875708  MEMB      119             0.0000000000
     13655       119  CHL1      H8            -21.1856395069        0.7583534944      -12.5096380744  MEMB      119             0.0000000000
     13656       119  CHL1      C14           -20.3595621381       -0.5142835378      -10.9632484039  MEMB      119             0.0000000000
     13657       119  CHL1      H14           -19.8846971246       -1.5297075850      -10.9431377247  MEMB      119             0.0000000000
     13658       119  CHL1      C15           -21.5052994882       -0.5962636017       -9.9564028789  MEMB      119             0.0000000000
     13659       119  CHL1      H15A          -22.2277539004        0.2148627834      -10.1845991800  MEMB      119             0.0000000000
     13660       119  CHL1      H15B          -22.0167996761       -1.5808689304       -9.9726740089  MEMB      119             0.0000000000
     13661       119  CHL1      C16           -20.8468484687       -0.3059880576       -8.6114067306  MEMB      119             0.0000000000
     13662       119  CHL1      H16A          -21.3270567877        0.6149326075       -8.2117769180  MEMB      119             0.0000000000
     13663       119  CHL1      H16B          -20.9750082032       -1.1370215153       -7.8887420544  MEMB      119             0.0000000000
     13664       119  CHL1      C17           -19.3451060120       -0.0129818997       -8.8848355138  MEMB      119             0.0000000000
     13665       119  CHL1      H17           -18.8437279516       -1.0046085908       -8.8514703656  MEMB      119             0.0000000000
     13666       119  CHL1      C13           -19.3288055685        0.4451965185      -10.3647948193  MEMB      119             0.0000000000
     13667       119  CHL1      C18           -19.8194902524        1.9146840931      -10.4338060146  MEMB      119             0.0000000000
     13668       119  CHL1      H18A          -19.0792535283        2.5873979561       -9.9554404584  MEMB      119             0.0000000000
     13669       119  CHL1      H18B          -19.9343831514        2.2487269160      -11.4821637304  MEMB      119             0.0000000000
     13670       119  CHL1      H18C          -20.7977094236        2.0423913428       -9.9323223989  MEMB      119             0.0000000000
     13671       119  CHL1      C12           -18.0464968341        0.2557206727      -11.1822925656  MEMB      119             0.0000000000
     13672       119  CHL1      H12A          -17.2422244122        0.9039793585      -10.7937270566  MEMB      119             0.0000000000
     13673       119  CHL1      H12B          -17.7111967745       -0.7933263752      -11.1236329878  MEMB      119             0.0000000000
     13674       119  CHL1      C11           -18.2908936676        0.4844076881      -12.6873343720  MEMB      119             0.0000000000
     13675       119  CHL1      H11A          -18.4486937961        1.5672596523      -12.8564272108  MEMB      119             0.0000000000
     13676       119  CHL1      H11B          -17.3650467688        0.1840403398      -13.2211752556  MEMB      119             0.0000000000
     13677       119  CHL1      C9            -19.4747324864       -0.3519626960      -13.2609515543  MEMB      119             0.0000000000
     13678       119  CHL1      H9            -19.1560103863       -1.4215182390      -13.1601275110  MEMB      119             0.0000000000
     13679       119  CHL1      C10           -19.7384547706       -0.1431649080      -14.7726321979  MEMB      119             0.0000000000
     13680       119  CHL1      C19           -19.8913288767        1.3643752681      -15.0452460642  MEMB      119             0.0000000000
     13681       119  CHL1      H19A          -20.1616753805        1.5920806397      -16.0962928293  MEMB      119             0.0000000000
     13682       119  CHL1      H19B          -20.6864373662        1.7739443416      -14.3956199128  MEMB      119             0.0000000000
     13683       119  CHL1      H19C          -18.9449307578        1.9117410345      -14.8486846550  MEMB      119             0.0000000000
     13684       119  CHL1      C1            -18.5213737893       -0.6948041901      -15.5616378923  MEMB      119             0.0000000000
     13685       119  CHL1      H1A           -17.6352983270       -0.0578705033      -15.3468210930  MEMB      119             0.0000000000
     13686       119  CHL1      H1B           -18.3008558269       -1.7229731620      -15.1939608036  MEMB      119             0.0000000000
     13687       119  CHL1      C2            -18.7440090668       -0.7382886361      -17.0745885110  MEMB      119             0.0000000000
     13688       119  CHL1      H2A           -17.8455379161       -1.1502536634      -17.5660430855  MEMB      119             0.0000000000
     13689       119  CHL1      H2B           -18.8773355287        0.3005916395      -17.4474808361  MEMB      119             0.0000000000
     13690       119  CHL1      C20           -18.7191011584        0.8478835406       -7.7668241306  MEMB      119             0.0000000000
     13691       119  CHL1      H20           -18.9492545237        1.9218770067       -7.9398528478  MEMB      119             0.0000000000
     13692       119  CHL1      C21           -17.1878384014        0.6664166261       -7.7535278518  MEMB      119             0.0000000000
     13693       119  CHL1      H21A          -16.9220545943       -0.3879152706       -7.5306776813  MEMB      119             0.0000000000
     13694       119  CHL1      H21B          -16.7312574984        1.3117257804       -6.9729478958  MEMB      119             0.0000000000
     13695       119  CHL1      H21C          -16.7424761838        0.9460540223       -8.7264372992  MEMB      119             0.0000000000
     13696       119  CHL1      C22           -19.3352964263        0.4806679648       -6.3872978810  MEMB      119             0.0000000000
     13697       119  CHL1      H22A          -20.4153077418        0.7510226543       -6.3969457890  MEMB      119             0.0000000000
     13698       119  CHL1      H22B          -19.2604609734       -0.6175402387       -6.2235267847  MEMB      119             0.0000000000
     13699       119  CHL1      C23           -18.8105044749        1.1913406692       -5.1344479276  MEMB      119             0.0000000000
     13700       119  CHL1      H23A          -17.8520069484        0.7372800162       -4.8039466449  MEMB      119             0.0000000000
     13701       119  CHL1      H23B          -18.6366274241        2.2689266660       -5.3487964737  MEMB      119             0.0000000000
     13702       119  CHL1      C24           -19.8860916946        1.0613603413       -4.0409997870  MEMB      119             0.0000000000
     13703       119  CHL1      H24A          -20.7240965567        1.7540310682       -4.2807445315  MEMB      119             0.0000000000
     13704       119  CHL1      H24B          -20.2980968821        0.0255087354       -4.0742409143  MEMB      119             0.0000000000
     13705       119  CHL1      C25           -19.4311663932        1.3112554787       -2.5970141933  MEMB      119             0.0000000000
     13706       119  CHL1      H25           -18.6929848933        0.5145547924       -2.3332570769  MEMB      119             0.0000000000
     13707       119  CHL1      C26           -18.7398613183        2.6656520228       -2.3859774590  MEMB      119             0.0000000000
     13708       119  CHL1      H26A          -19.4771700214        3.4553878591       -2.1381957194  MEMB      119             0.0000000000
     13709       119  CHL1      H26B          -18.0339851563        2.5782391138       -1.5321785469  MEMB      119             0.0000000000
     13710       119  CHL1      H26C          -18.1691206577        2.9821738500       -3.2831858742  MEMB      119             0.0000000000
     13711       119  CHL1      C27           -20.6470926596        1.1902764279       -1.6679202975  MEMB      119             0.0000000000
     13712       119  CHL1      H27A          -20.8832646064        0.1249191316       -1.4596617638  MEMB      119             0.0000000000
     13713       119  CHL1      H27B          -20.4473848561        1.7157285883       -0.7132463391  MEMB      119             0.0000000000
     13714       119  CHL1      H27C          -21.5434030890        1.6639741698       -2.1191968954  MEMB      119             0.0000000000
     13715       120  OSM       N              10.9955788228      -14.3817055065      -21.0761183240  MEMB      120             0.0000000000
     13716       120  OSM       C15             9.9056301840      -13.3798517663      -21.2785233133  MEMB      120             0.0000000000
     13717       120  OSM       H15A            9.0674241426      -13.8742541376      -21.7662912369  MEMB      120             0.0000000000
     13718       120  OSM       H15B           10.2194748674      -12.5801769954      -21.9383449367  MEMB      120             0.0000000000
     13719       120  OSM       H15C            9.5523491981      -12.9649515009      -20.3373221002  MEMB      120             0.0000000000
     13720       120  OSM       C14            10.5100365948      -15.4322752475      -20.1298935608  MEMB      120             0.0000000000
     13721       120  OSM       H14A            9.5518898038      -15.8398945234      -20.4475505443  MEMB      120             0.0000000000
     13722       120  OSM       H14B           10.4378102785      -15.0997940775      -19.1091212762  MEMB      120             0.0000000000
     13723       120  OSM       H14C           11.1893955601      -16.2868604018      -20.1444898101  MEMB      120             0.0000000000
     13724       120  OSM       C13            11.2626713403      -15.0750702966      -22.3795303256  MEMB      120             0.0000000000
     13725       120  OSM       H13A           10.3790246891      -15.5992229134      -22.7425428471  MEMB      120             0.0000000000
     13726       120  OSM       H13B           12.0791860515      -15.7887098275      -22.2675882872  MEMB      120             0.0000000000
     13727       120  OSM       H13C           11.5833481307      -14.3776904415      -23.1314717852  MEMB      120             0.0000000000
     13728       120  OSM       C12            12.2820394886      -13.7289501188      -20.5890781070  MEMB      120             0.0000000000
     13729       120  OSM       H12A           12.0659565236      -13.1791345119      -19.6838082435  MEMB      120             0.0000000000
     13730       120  OSM       H12B           12.6018182237      -13.0105718451      -21.3325165854  MEMB      120             0.0000000000
     13731       120  OSM       C11            13.5178603782      -14.6257305932      -20.3069460774  MEMB      120             0.0000000000
     13732       120  OSM       H11A           13.1971943115      -15.4779927631      -19.6631673435  MEMB      120             0.0000000000
     13733       120  OSM       H11B           14.2293833063      -14.0067448846      -19.7019752682  MEMB      120             0.0000000000
     13734       120  OSM       P              15.4310557766      -16.0355531375      -21.2333339453  MEMB      120             0.0000000000
     13735       120  OSM       O13            16.3969664930      -16.0789665626      -22.3425462437  MEMB      120             0.0000000000
     13736       120  OSM       O14            15.9863206633      -15.7340134685      -19.8907331348  MEMB      120             0.0000000000
     13737       120  OSM       O11            14.6920211655      -17.4494581825      -21.1569968233  MEMB      120             0.0000000000
     13738       120  OSM       O12            14.1697797728      -15.0713853075      -21.5159835577  MEMB      120             0.0000000000
     13739       120  OSM       C1S            15.1278893202      -18.4009650513      -20.1739711954  MEMB      120             0.0000000000
     13740       120  OSM       H1S            16.2382326783      -18.4195043111      -20.0698870765  MEMB      120             0.0000000000
     13741       120  OSM       H1T            14.8299609276      -19.4258138536      -20.4902331578  MEMB      120             0.0000000000
     13742       120  OSM       NF             15.2471783532      -18.6903850358      -17.7089591701  MEMB      120             0.0000000000
     13743       120  OSM       HNF            14.8715669184      -19.4611710329      -17.1959543764  MEMB      120             0.0000000000
     13744       120  OSM       C2S            14.4847884866      -18.0930411409      -18.7940791483  MEMB      120             0.0000000000
     13745       120  OSM       H2S            14.4878679246      -16.9988974526      -18.6096242271  MEMB      120             0.0000000000
     13746       120  OSM       C3S            13.0047050570      -18.5764430956      -18.7927044761  MEMB      120             0.0000000000
     13747       120  OSM       H3S            12.9473585907      -19.6660359249      -19.0146847927  MEMB      120             0.0000000000
     13748       120  OSM       O3             12.2082032041      -17.8866571889      -19.7448338617  MEMB      120             0.0000000000
     13749       120  OSM       HO3            12.8544758569      -17.5859206856      -20.3951900656  MEMB      120             0.0000000000
     13750       120  OSM       C4S            12.4204127132      -18.2751316366      -17.4493500222  MEMB      120             0.0000000000
     13751       120  OSM       H4S            11.9915731981      -17.2704359562      -17.3387750140  MEMB      120             0.0000000000
     13752       120  OSM       C5S            12.4032369601      -19.1268078821      -16.4134904304  MEMB      120             0.0000000000
     13753       120  OSM       H5S            12.8730852392      -20.1183587819      -16.5170148430  MEMB      120             0.0000000000
     13754       120  OSM       C6S            11.8273529473      -18.8335705091      -15.0601112389  MEMB      120             0.0000000000
     13755       120  OSM       H6S            11.1701443873      -19.6792371953      -14.7678048499  MEMB      120             0.0000000000
     13756       120  OSM       H6T            11.1846323994      -17.9239186962      -15.0555411851  MEMB      120             0.0000000000
     13757       120  OSM       C7S            12.9316356704      -18.6570424737      -13.9992135099  MEMB      120             0.0000000000
     13758       120  OSM       H7S            13.2653060525      -17.5954493915      -13.9864639715  MEMB      120             0.0000000000
     13759       120  OSM       H7T            13.8228866524      -19.2834153756      -14.2494929686  MEMB      120             0.0000000000
     13760       120  OSM       C8S            12.4635906329      -19.0966937827      -12.6053613516  MEMB      120             0.0000000000
     13761       120  OSM       H8S            12.9994312838      -20.0463743186      -12.3650654752  MEMB      120             0.0000000000
     13762       120  OSM       H8T            11.3720140793      -19.3110514205      -12.6297295793  MEMB      120             0.0000000000
     13763       120  OSM       C9S            12.6990445170      -18.0969314112      -11.4718035502  MEMB      120             0.0000000000
     13764       120  OSM       H9S            13.6368069740      -17.5295364833      -11.6510382274  MEMB      120             0.0000000000
     13765       120  OSM       H9T            12.8404744207      -18.6957373168      -10.5440679448  MEMB      120             0.0000000000
     13766       120  OSM       C10S           11.4998771373      -17.1561077169      -11.2749404793  MEMB      120             0.0000000000
     13767       120  OSM       H10S           10.5830727185      -17.7643396009      -11.1039740285  MEMB      120             0.0000000000
     13768       120  OSM       H10T           11.3513105438      -16.5751680500      -12.2144735674  MEMB      120             0.0000000000
     13769       120  OSM       C11S           11.6743525738      -16.1776627353      -10.1051753140  MEMB      120             0.0000000000
     13770       120  OSM       H11S           10.8112150556      -15.4739255327      -10.0866205051  MEMB      120             0.0000000000
     13771       120  OSM       H11T           12.5935960401      -15.5756677311      -10.2876402978  MEMB      120             0.0000000000
     13772       120  OSM       C12S           11.7855496077      -16.8498661705       -8.7279736827  MEMB      120             0.0000000000
     13773       120  OSM       H12S           12.5775597249      -17.6296920329       -8.7568780240  MEMB      120             0.0000000000
     13774       120  OSM       H12T           10.8273005520      -17.3504356685       -8.4720895574  MEMB      120             0.0000000000
     13775       120  OSM       C13S           12.1777175661      -15.8468957262       -7.6373469893  MEMB      120             0.0000000000
     13776       120  OSM       H13S           11.3885707365      -15.0729054139       -7.5214395328  MEMB      120             0.0000000000
     13777       120  OSM       H13T           13.1076353850      -15.3325336836       -7.9790312458  MEMB      120             0.0000000000
     13778       120  OSM       C14S           12.4819613177      -16.4947703403       -6.2782777677  MEMB      120             0.0000000000
     13779       120  OSM       H14S           13.0375885765      -15.7323552547       -5.6869513307  MEMB      120             0.0000000000
     13780       120  OSM       H14T           13.1542105380      -17.3689461145       -6.4143478096  MEMB      120             0.0000000000
     13781       120  OSM       C15S           11.2303290889      -16.9259482329       -5.5023699195  MEMB      120             0.0000000000
     13782       120  OSM       H15S           10.7460959232      -17.7837775760       -6.0213582531  MEMB      120             0.0000000000
     13783       120  OSM       H15T           10.5059441584      -16.0809800637       -5.5096627800  MEMB      120             0.0000000000
     13784       120  OSM       C16S           11.5047076806      -17.3118472357       -4.0373455010  MEMB      120             0.0000000000
     13785       120  OSM       H16S           12.0419884969      -18.2855492654       -3.9990691540  MEMB      120             0.0000000000
     13786       120  OSM       H16T           10.5186690990      -17.4505570765       -3.5359232794  MEMB      120             0.0000000000
     13787       120  OSM       C17S           12.3109507742      -16.2648873811       -3.2505269359  MEMB      120             0.0000000000
     13788       120  OSM       H17S           11.9233337996      -15.2522021119       -3.5060627853  MEMB      120             0.0000000000
     13789       120  OSM       H17T           13.3771798571      -16.2968528591       -3.5717371359  MEMB      120             0.0000000000
     13790       120  OSM       C18S           12.2339654983      -16.4561645500       -1.7336450352  MEMB      120             0.0000000000
     13791       120  OSM       H18S           12.6934482493      -15.5947047140       -1.2031817208  MEMB      120             0.0000000000
     13792       120  OSM       H18T           12.7595158735      -17.3819721025       -1.4208495313  MEMB      120             0.0000000000
     13793       120  OSM       H18U           11.1720884739      -16.5347734664       -1.4197113807  MEMB      120             0.0000000000
     13794       120  OSM       C1F            16.4144309926      -18.2338099870      -17.2585724174  MEMB      120             0.0000000000
     13795       120  OSM       OF             17.2315534463      -17.6403613461      -17.9438992247  MEMB      120             0.0000000000
     13796       120  OSM       C2F            16.6957233664      -18.6438370577      -15.8571874852  MEMB      120             0.0000000000
     13797       120  OSM       H2F            17.3096537287      -19.5576618459      -15.9357872415  MEMB      120             0.0000000000
     13798       120  OSM       H2G            15.7233390584      -18.8838569714      -15.3760241975  MEMB      120             0.0000000000
     13799       120  OSM       C3F            17.4882539115      -17.7906710356      -14.8567185516  MEMB      120             0.0000000000
     13800       120  OSM       H3F            16.8612310686      -16.9429295864      -14.5103257361  MEMB      120             0.0000000000
     13801       120  OSM       H3G            18.4057579216      -17.3838657683      -15.3254149404  MEMB      120             0.0000000000
     13802       120  OSM       C4F            17.8167059344      -18.7726689333      -13.7047481560  MEMB      120             0.0000000000
     13803       120  OSM       H4F            18.6906851444      -19.3952872259      -14.0058357597  MEMB      120             0.0000000000
     13804       120  OSM       H4G            16.9651961905      -19.4873482090      -13.5838597185  MEMB      120             0.0000000000
     13805       120  OSM       C5F            18.0663064211      -18.1595567179      -12.3329824668  MEMB      120             0.0000000000
     13806       120  OSM       H5F            18.7496031801      -17.2943238934      -12.4563184727  MEMB      120             0.0000000000
     13807       120  OSM       H5G            18.5668236541      -18.9137354071      -11.6784209640  MEMB      120             0.0000000000
     13808       120  OSM       C6F            16.8055276313      -17.6822684842      -11.6097517244  MEMB      120             0.0000000000
     13809       120  OSM       H6F            16.2688333590      -18.5557010254      -11.1757792877  MEMB      120             0.0000000000
     13810       120  OSM       H6G            16.1168618364      -17.2034961696      -12.3404602654  MEMB      120             0.0000000000
     13811       120  OSM       C7F            17.1838545357      -16.6632184879      -10.5210396985  MEMB      120             0.0000000000
     13812       120  OSM       H7F            17.7568834947      -15.8403075962      -11.0049876853  MEMB      120             0.0000000000
     13813       120  OSM       H7G            17.8787352783      -17.1476108341       -9.7947286800  MEMB      120             0.0000000000
     13814       120  OSM       C8F            15.9747007321      -16.0411112030       -9.8095500213  MEMB      120             0.0000000000
     13815       120  OSM       H8F            15.1257825252      -15.9765243192      -10.5265855565  MEMB      120             0.0000000000
     13816       120  OSM       H8G            16.2016331727      -15.0145061005       -9.4610329875  MEMB      120             0.0000000000
     13817       120  OSM       C9F            15.5972296448      -16.9469624426       -8.6869608571  MEMB      120             0.0000000000
     13818       120  OSM       H9F            15.1194196833      -17.8212207638       -9.0901780427  MEMB      120             0.0000000000
     13819       120  OSM       C10F           15.7911764813      -16.8287106123       -7.3651775208  MEMB      120             0.0000000000
     13820       120  OSM       H10F           15.4340404832      -17.6216464808       -6.6861818565  MEMB      120             0.0000000000
     13821       120  OSM       C11F           16.4717621359      -15.6801610609       -6.6894851173  MEMB      120             0.0000000000
     13822       120  OSM       H11F           15.7202062715      -15.1824741505       -6.0408506383  MEMB      120             0.0000000000
     13823       120  OSM       H11G           16.8299509121      -14.9200565918       -7.4185440473  MEMB      120             0.0000000000
     13824       120  OSM       C12F           17.6760046923      -16.1276180408       -5.8469394853  MEMB      120             0.0000000000
     13825       120  OSM       H12F           18.4251333426      -16.6375581049       -6.4953958131  MEMB      120             0.0000000000
     13826       120  OSM       H12G           17.3513114037      -16.8587377527       -5.0728900225  MEMB      120             0.0000000000
     13827       120  OSM       C13F           18.3505494071      -14.9322351723       -5.1593273622  MEMB      120             0.0000000000
     13828       120  OSM       H13F           18.8061303648      -14.2920409496       -5.9496321191  MEMB      120             0.0000000000
     13829       120  OSM       H13G           19.1872753500      -15.2891697724       -4.5228322345  MEMB      120             0.0000000000
     13830       120  OSM       C14F           17.3757701459      -14.0671667227       -4.3388211299  MEMB      120             0.0000000000
     13831       120  OSM       H14F           16.6473442766      -13.5970752724       -5.0356963375  MEMB      120             0.0000000000
     13832       120  OSM       H14G           17.9215611107      -13.2301208779       -3.8758050210  MEMB      120             0.0000000000
     13833       120  OSM       C15F           16.5913703321      -14.7860131674       -3.2275362695  MEMB      120             0.0000000000
     13834       120  OSM       H15F           16.0526198885      -15.6704159121       -3.6268503413  MEMB      120             0.0000000000
     13835       120  OSM       H15G           15.8138024977      -14.0651469390       -2.8784343137  MEMB      120             0.0000000000
     13836       120  OSM       C16F           17.4247475392      -15.1833650596       -1.9976738688  MEMB      120             0.0000000000
     13837       120  OSM       H16F           16.7309065563      -15.2415236407       -1.1265698716  MEMB      120             0.0000000000
     13838       120  OSM       H16G           18.1781218340      -14.3973235276       -1.7706763100  MEMB      120             0.0000000000
     13839       120  OSM       C17F           18.1061600462      -16.5527979490       -2.1130140027  MEMB      120             0.0000000000
     13840       120  OSM       H17F           18.9401617269      -16.5006239546       -2.8452326961  MEMB      120             0.0000000000
     13841       120  OSM       H17G           17.3707595146      -17.2891094458       -2.5073127197  MEMB      120             0.0000000000
     13842       120  OSM       C18F           18.6454880501      -17.0606837321       -0.7762036954  MEMB      120             0.0000000000
     13843       120  OSM       H18F           17.8336461953      -17.1393040600       -0.0243992120  MEMB      120             0.0000000000
     13844       120  OSM       H18G           19.4207772698      -16.3659947591       -0.3866123915  MEMB      120             0.0000000000
     13845       120  OSM       H18H           19.1042917919      -18.0651071885       -0.9076028642  MEMB      120             0.0000000000
     13846       121  SAPS      N              -9.1065439204       16.9367704908      -21.3467567846  MEMB      121             0.0000000000
     13847       121  SAPS      HN1            -8.3761886345       17.3117620371      -22.0115626830  MEMB      121             0.0000000000
     13848       121  SAPS      HN2            -9.0737949903       15.8934560307      -21.3816457374  MEMB      121             0.0000000000
     13849       121  SAPS      HN3           -10.0317903409       17.3262858198      -21.6132943607  MEMB      121             0.0000000000
     13850       121  SAPS      C12            -8.7246018384       17.3713351700      -19.9707259852  MEMB      121             0.0000000000
     13851       121  SAPS      H12A           -9.6233796534       17.4325728390      -19.3768795569  MEMB      121             0.0000000000
     13852       121  SAPS      C13            -7.8267929058       16.3171258755      -19.2803223399  MEMB      121             0.0000000000
     13853       121  SAPS      O13A           -7.7380225572       15.2071819343      -19.8796502338  MEMB      121             0.0000000000
     13854       121  SAPS      O13B           -7.6705390809       16.4101546832      -18.0369410686  MEMB      121             0.0000000000
     13855       121  SAPS      C11            -8.0827683164       18.7909934173      -20.0733999916  MEMB      121             0.0000000000
     13856       121  SAPS      H11A           -7.0001730184       18.6732231566      -20.3124749657  MEMB      121             0.0000000000
     13857       121  SAPS      H11B           -8.1405695054       19.2972973171      -19.0843712892  MEMB      121             0.0000000000
     13858       121  SAPS      P             -10.1878659433       20.0367077093      -21.1293538801  MEMB      121             0.0000000000
     13859       121  SAPS      O13           -10.5093436959       20.3397522976      -22.5387425215  MEMB      121             0.0000000000
     13860       121  SAPS      O14           -11.0509458785       19.0036092838      -20.4981290640  MEMB      121             0.0000000000
     13861       121  SAPS      O12            -8.6768213624       19.5968544602      -21.0989906595  MEMB      121             0.0000000000
     13862       121  SAPS      O11           -10.1912210095       21.3700154522      -20.2825672943  MEMB      121             0.0000000000
     13863       121  SAPS      C1            -10.9329147332       21.5178639963      -19.0850104385  MEMB      121             0.0000000000
     13864       121  SAPS      HA            -11.6266548865       22.3746522462      -19.2102415630  MEMB      121             0.0000000000
     13865       121  SAPS      HB            -11.5339687974       20.6278359063      -18.7964836654  MEMB      121             0.0000000000
     13866       121  SAPS      C2            -10.0512523556       21.9208990975      -17.8956485042  MEMB      121             0.0000000000
     13867       121  SAPS      HS             -9.4241537941       22.7833109596      -18.2427322684  MEMB      121             0.0000000000
     13868       121  SAPS      O21            -9.2242024387       20.8136996079      -17.4559316387  MEMB      121             0.0000000000
     13869       121  SAPS      C21            -8.3705419725       21.2537265683      -16.5312365855  MEMB      121             0.0000000000
     13870       121  SAPS      O22            -8.2047172980       22.4258326316      -16.2582134424  MEMB      121             0.0000000000
     13871       121  SAPS      C22            -7.7644544557       20.0972201436      -15.7716884480  MEMB      121             0.0000000000
     13872       121  SAPS      H2R            -8.5495054245       19.3867245699      -15.4578192330  MEMB      121             0.0000000000
     13873       121  SAPS      H2S            -7.0514619615       19.5828462996      -16.4501308286  MEMB      121             0.0000000000
     13874       121  SAPS      C3            -11.0116397404       22.3791827209      -16.7599346940  MEMB      121             0.0000000000
     13875       121  SAPS      HX            -11.7720661983       23.0761137863      -17.1785216393  MEMB      121             0.0000000000
     13876       121  SAPS      HY            -10.4256938774       22.9921368794      -16.0417410680  MEMB      121             0.0000000000
     13877       121  SAPS      O31           -11.6567449719       21.2071068292      -16.1855594034  MEMB      121             0.0000000000
     13878       121  SAPS      C31           -11.2940829180       20.9689114568      -14.9343334273  MEMB      121             0.0000000000
     13879       121  SAPS      O32           -10.7846324519       21.7874310946      -14.1891489564  MEMB      121             0.0000000000
     13880       121  SAPS      C32           -11.5895216861       19.5293388968      -14.5101928030  MEMB      121             0.0000000000
     13881       121  SAPS      H2X           -12.6291053455       19.4984374945      -14.1286269407  MEMB      121             0.0000000000
     13882       121  SAPS      H2Y           -10.8988229621       19.3271717594      -13.6624963689  MEMB      121             0.0000000000
     13883       121  SAPS      C23            -7.0393692837       20.6554633000      -14.5368864738  MEMB      121             0.0000000000
     13884       121  SAPS      H3R            -7.6962443775       21.2331594075      -13.8533052691  MEMB      121             0.0000000000
     13885       121  SAPS      H3S            -6.2793122759       21.3552093678      -14.9352824956  MEMB      121             0.0000000000
     13886       121  SAPS      C24            -6.2693864581       19.5692034827      -13.8004594279  MEMB      121             0.0000000000
     13887       121  SAPS      H4R            -5.4908963889       20.0346702827      -13.1542639619  MEMB      121             0.0000000000
     13888       121  SAPS      H4S            -5.7608412789       19.0568774384      -14.6309225228  MEMB      121             0.0000000000
     13889       121  SAPS      C25            -7.0791225641       18.5504560604      -13.0518474882  MEMB      121             0.0000000000
     13890       121  SAPS      H5R            -7.0514189315       17.5344879008      -13.4783766018  MEMB      121             0.0000000000
     13891       121  SAPS      C26            -7.7998496941       18.7777526658      -11.9453804296  MEMB      121             0.0000000000
     13892       121  SAPS      H6R            -8.3252056626       17.9326771883      -11.4862395652  MEMB      121             0.0000000000
     13893       121  SAPS      C27            -7.9473075086       20.0938735074      -11.2274629465  MEMB      121             0.0000000000
     13894       121  SAPS      H7R            -8.9124579807       20.5533664669      -11.5339764030  MEMB      121             0.0000000000
     13895       121  SAPS      H7S            -7.1553414730       20.8085757961      -11.5409180544  MEMB      121             0.0000000000
     13896       121  SAPS      C28            -7.9589532562       19.8882205829       -9.7319848317  MEMB      121             0.0000000000
     13897       121  SAPS      H8R            -8.8485934295       19.3597625607       -9.3544602036  MEMB      121             0.0000000000
     13898       121  SAPS      C29            -7.0720610062       20.3680917885       -8.8406883615  MEMB      121             0.0000000000
     13899       121  SAPS      H9R            -7.2065605333       20.1024489516       -7.7776205209  MEMB      121             0.0000000000
     13900       121  SAPS      C210           -5.8631930820       21.2265820600       -9.1464636663  MEMB      121             0.0000000000
     13901       121  SAPS      H10R           -6.1231483927       22.2684665358       -8.8620831726  MEMB      121             0.0000000000
     13902       121  SAPS      H10S           -5.6348085312       21.2712503042      -10.2301352329  MEMB      121             0.0000000000
     13903       121  SAPS      C211           -4.6076603004       20.8530489644       -8.4088665736  MEMB      121             0.0000000000
     13904       121  SAPS      H11R           -3.8423839945       20.2948756061       -8.9762482997  MEMB      121             0.0000000000
     13905       121  SAPS      C212           -4.3810375353       21.1692164093       -7.1260443286  MEMB      121             0.0000000000
     13906       121  SAPS      H12R           -3.4386081933       20.8309748168       -6.6605588183  MEMB      121             0.0000000000
     13907       121  SAPS      C213           -5.3145062121       21.9316811090       -6.2096340273  MEMB      121             0.0000000000
     13908       121  SAPS      H13R           -4.9358571837       21.7028516848       -5.2139212839  MEMB      121             0.0000000000
     13909       121  SAPS      H13S           -6.3063429026       21.4544638569       -6.3265307353  MEMB      121             0.0000000000
     13910       121  SAPS      C214           -5.6090363787       23.4187876558       -6.2132156529  MEMB      121             0.0000000000
     13911       121  SAPS      H14R           -5.8719702589       23.7936167980       -7.2097530928  MEMB      121             0.0000000000
     13912       121  SAPS      C215           -5.5333697309       24.3329147069       -5.2062769348  MEMB      121             0.0000000000
     13913       121  SAPS      H15R           -5.8428917220       25.3508070324       -5.4690955559  MEMB      121             0.0000000000
     13914       121  SAPS      C216           -5.1311293530       24.2241924261       -3.7384908937  MEMB      121             0.0000000000
     13915       121  SAPS      H16R           -4.3869657033       25.0111837224       -3.4748937837  MEMB      121             0.0000000000
     13916       121  SAPS      H16S           -4.5995045885       23.2672720553       -3.5547690529  MEMB      121             0.0000000000
     13917       121  SAPS      C217           -6.2849500122       24.3295655283       -2.6959477894  MEMB      121             0.0000000000
     13918       121  SAPS      H17R           -7.1372441088       23.7337833185       -3.0587388735  MEMB      121             0.0000000000
     13919       121  SAPS      H17S           -6.6912068011       25.3494633824       -2.6342849410  MEMB      121             0.0000000000
     13920       121  SAPS      C218           -5.8492163580       23.8593940764       -1.2916698706  MEMB      121             0.0000000000
     13921       121  SAPS      H18R           -5.4417766845       24.7051727586       -0.6936210873  MEMB      121             0.0000000000
     13922       121  SAPS      H18S           -4.9878840717       23.1695360889       -1.4221534987  MEMB      121             0.0000000000
     13923       121  SAPS      C219           -6.8763816067       23.1491378632       -0.3773556660  MEMB      121             0.0000000000
     13924       121  SAPS      H19R           -7.0164723651       23.7992362094        0.5175608002  MEMB      121             0.0000000000
     13925       121  SAPS      H19S           -6.3462558902       22.2430233330       -0.0062496841  MEMB      121             0.0000000000
     13926       121  SAPS      C220           -8.2603166012       22.6981257453       -0.8903334943  MEMB      121             0.0000000000
     13927       121  SAPS      H20R           -8.6991358422       23.3699775696       -1.6566804574  MEMB      121             0.0000000000
     13928       121  SAPS      H20S           -8.9641936327       22.6492280481       -0.0373661220  MEMB      121             0.0000000000
     13929       121  SAPS      H20T           -8.2654413412       21.6670589070       -1.2830925428  MEMB      121             0.0000000000
     13930       121  SAPS      C33           -11.3865577280       18.4560740495      -15.6054135914  MEMB      121             0.0000000000
     13931       121  SAPS      H3X           -10.4046848885       18.5890228805      -16.1104631247  MEMB      121             0.0000000000
     13932       121  SAPS      H3Y           -12.1727320991       18.5985971873      -16.3828077553  MEMB      121             0.0000000000
     13933       121  SAPS      C34           -11.4645197771       17.0145810581      -15.0582531887  MEMB      121             0.0000000000
     13934       121  SAPS      H4X           -11.4370920028       16.3333804853      -15.9373397985  MEMB      121             0.0000000000
     13935       121  SAPS      H4Y           -12.4468130781       16.8764410296      -14.5551573848  MEMB      121             0.0000000000
     13936       121  SAPS      C35           -10.3342819350       16.6041008023      -14.0834801226  MEMB      121             0.0000000000
     13937       121  SAPS      H5X           -10.4242004944       17.1806980905      -13.1385286883  MEMB      121             0.0000000000
     13938       121  SAPS      H5Y            -9.3569950986       16.8634748074      -14.5516865904  MEMB      121             0.0000000000
     13939       121  SAPS      C36           -10.3442440871       15.0929985148      -13.7643367892  MEMB      121             0.0000000000
     13940       121  SAPS      H6X           -10.1863209603       14.5753383334      -14.7357234756  MEMB      121             0.0000000000
     13941       121  SAPS      H6Y           -11.3413647625       14.7937054208      -13.3775051460  MEMB      121             0.0000000000
     13942       121  SAPS      C37            -9.2329833257       14.5551063260      -12.8305982123  MEMB      121             0.0000000000
     13943       121  SAPS      H7X            -8.2484618133       14.8123615717      -13.2865975500  MEMB      121             0.0000000000
     13944       121  SAPS      H7Y            -9.3137583640       13.4431831188      -12.8218612467  MEMB      121             0.0000000000
     13945       121  SAPS      C38            -9.2204842428       15.0314062128      -11.3600123061  MEMB      121             0.0000000000
     13946       121  SAPS      H8X            -8.9068720851       16.0888458793      -11.3457969120  MEMB      121             0.0000000000
     13947       121  SAPS      H8Y            -8.4396150573       14.4523931095      -10.8153743378  MEMB      121             0.0000000000
     13948       121  SAPS      C39           -10.5416350987       14.8957901618      -10.5819559179  MEMB      121             0.0000000000
     13949       121  SAPS      H9X           -10.7900541043       13.8106737206      -10.5182324975  MEMB      121             0.0000000000
     13950       121  SAPS      H9Y           -11.3548952311       15.3912987491      -11.1536712044  MEMB      121             0.0000000000
     13951       121  SAPS      C310          -10.5104842719       15.4652995194       -9.1372975159  MEMB      121             0.0000000000
     13952       121  SAPS      H10X           -9.7876326477       14.8717520180       -8.5378221630  MEMB      121             0.0000000000
     13953       121  SAPS      H10Y          -11.5221935982       15.3075402237       -8.6980920692  MEMB      121             0.0000000000
     13954       121  SAPS      C311          -10.1593379366       16.9646740944       -8.9856978067  MEMB      121             0.0000000000
     13955       121  SAPS      H11X          -10.8797145140       17.5399006447       -9.6155844251  MEMB      121             0.0000000000
     13956       121  SAPS      H11Y           -9.1425227531       17.1599716108       -9.3851275473  MEMB      121             0.0000000000
     13957       121  SAPS      C312          -10.2634468706       17.5241186864       -7.5386846726  MEMB      121             0.0000000000
     13958       121  SAPS      H12X          -11.3127225271       17.3676306160       -7.2060193348  MEMB      121             0.0000000000
     13959       121  SAPS      H12Y          -10.0983367084       18.6266054485       -7.5716844512  MEMB      121             0.0000000000
     13960       121  SAPS      C313           -9.3132483770       16.9432931243       -6.4566283866  MEMB      121             0.0000000000
     13961       121  SAPS      H13X           -8.3954437943       17.5811427170       -6.4244172341  MEMB      121             0.0000000000
     13962       121  SAPS      H13Y           -8.9773519247       15.9243124693       -6.7471624879  MEMB      121             0.0000000000
     13963       121  SAPS      C314           -9.9612652270       16.8809727340       -5.0369147899  MEMB      121             0.0000000000
     13964       121  SAPS      H14X          -10.1644184784       15.8368639650       -4.7236352454  MEMB      121             0.0000000000
     13965       121  SAPS      H14Y          -10.9356217734       17.4222914281       -5.1002771661  MEMB      121             0.0000000000
     13966       121  SAPS      C315           -9.1647261584       17.6193995087       -3.9417299579  MEMB      121             0.0000000000
     13967       121  SAPS      H15X           -9.1178716425       18.6029799822       -4.4377964847  MEMB      121             0.0000000000
     13968       121  SAPS      H15Y           -8.1379980958       17.2201778655       -3.8098702176  MEMB      121             0.0000000000
     13969       121  SAPS      C316           -9.8198438280       17.7448020546       -2.5370120721  MEMB      121             0.0000000000
     13970       121  SAPS      H16X           -9.6739367055       16.7723765167       -2.0135535245  MEMB      121             0.0000000000
     13971       121  SAPS      H16Y          -10.9089253466       17.9117653525       -2.6842978700  MEMB      121             0.0000000000
     13972       121  SAPS      C317           -9.2929402082       18.8588157184       -1.5838221170  MEMB      121             0.0000000000
     13973       121  SAPS      H17X           -9.9787695321       18.9544297381       -0.7103044963  MEMB      121             0.0000000000
     13974       121  SAPS      H17Y           -9.3361176002       19.8436362627       -2.0948353923  MEMB      121             0.0000000000
     13975       121  SAPS      C318           -7.8792645610       18.6287895133       -1.0274792132  MEMB      121             0.0000000000
     13976       121  SAPS      H18X           -7.8202546014       17.6679806726       -0.4751778229  MEMB      121             0.0000000000
     13977       121  SAPS      H18Y           -7.5697296086       19.4489663113       -0.3416945976  MEMB      121             0.0000000000
     13978       121  SAPS      H18Z           -7.1526479557       18.5923674590       -1.8608855989  MEMB      121             0.0000000000
     13979       122  SAPE      N              19.6110574578        1.4283781093      -19.9484496978  MEMB      122             0.0000000000
     13980       122  SAPE      HN1            19.0956052911        2.1476822713      -19.3589517709  MEMB      122             0.0000000000
     13981       122  SAPE      HN2            20.5923564902        1.3961652792      -19.5703314695  MEMB      122             0.0000000000
     13982       122  SAPE      HN3            19.6172084114        1.7349005595      -20.9381464235  MEMB      122             0.0000000000
     13983       122  SAPE      C12            18.9742981370        0.0828214623      -19.7733447977  MEMB      122             0.0000000000
     13984       122  SAPE      H12A           17.8826179755        0.2154226343      -19.9005740182  MEMB      122             0.0000000000
     13985       122  SAPE      H12B           19.1796423447       -0.2485603813      -18.7338564723  MEMB      122             0.0000000000
     13986       122  SAPE      C11            19.5140695319       -0.9522105445      -20.7727723675  MEMB      122             0.0000000000
     13987       122  SAPE      H11A           19.3075513334       -0.6396822474      -21.8203444761  MEMB      122             0.0000000000
     13988       122  SAPE      H11B           18.9207511885       -1.8864442090      -20.5976038047  MEMB      122             0.0000000000
     13989       122  SAPE      P              21.4846520075       -2.6463267581      -20.6298163922  MEMB      122             0.0000000000
     13990       122  SAPE      O13            20.8290277874       -3.2985726789      -21.7915665070  MEMB      122             0.0000000000
     13991       122  SAPE      O14            22.9482237806       -2.5457291004      -20.6510398780  MEMB      122             0.0000000000
     13992       122  SAPE      O12            20.9264116642       -1.1438232306      -20.6173323138  MEMB      122             0.0000000000
     13993       122  SAPE      O11            20.8776766132       -3.1565305424      -19.2436412599  MEMB      122             0.0000000000
     13994       122  SAPE      C1             20.3621829396       -4.4745379434      -19.0557650017  MEMB      122             0.0000000000
     13995       122  SAPE      HA             19.3154523558       -4.5339875019      -19.4267237150  MEMB      122             0.0000000000
     13996       122  SAPE      HB             20.9680622131       -5.2328683107      -19.6140203255  MEMB      122             0.0000000000
     13997       122  SAPE      C2             20.4039602432       -4.8775504397      -17.5454424536  MEMB      122             0.0000000000
     13998       122  SAPE      HS             20.2369013301       -5.9753399718      -17.5003225430  MEMB      122             0.0000000000
     13999       122  SAPE      O21            19.3478082471       -4.1673003508      -16.8463681507  MEMB      122             0.0000000000
     14000       122  SAPE      C21            19.3382145906       -4.0663076274      -15.5148865788  MEMB      122             0.0000000000
     14001       122  SAPE      O22            19.9461701681       -4.7493711858      -14.7196108255  MEMB      122             0.0000000000
     14002       122  SAPE      C22            18.4958198828       -2.8376491613      -15.1604172591  MEMB      122             0.0000000000
     14003       122  SAPE      H2R            17.9127115693       -2.5759389184      -16.0622331714  MEMB      122             0.0000000000
     14004       122  SAPE      H2S            17.8065026425       -3.1294574925      -14.3492140512  MEMB      122             0.0000000000
     14005       122  SAPE      C3             21.8327901736       -4.5726890976      -16.9782532537  MEMB      122             0.0000000000
     14006       122  SAPE      HX             22.5226734717       -4.4129202069      -17.8434317542  MEMB      122             0.0000000000
     14007       122  SAPE      HY             22.1687546546       -5.4856461224      -16.4369149649  MEMB      122             0.0000000000
     14008       122  SAPE      O31            21.8321695604       -3.4641249357      -16.0593074241  MEMB      122             0.0000000000
     14009       122  SAPE      C31            22.9887093516       -2.9745185125      -15.7605539897  MEMB      122             0.0000000000
     14010       122  SAPE      O32            24.0258031057       -3.1941741801      -16.3510739359  MEMB      122             0.0000000000
     14011       122  SAPE      C32            22.8376249086       -2.1648937809      -14.4692337560  MEMB      122             0.0000000000
     14012       122  SAPE      H2X            21.8014237685       -1.8008468430      -14.3937036858  MEMB      122             0.0000000000
     14013       122  SAPE      H2Y            23.4826055849       -1.2916900904      -14.6221790048  MEMB      122             0.0000000000
     14014       122  SAPE      C23            19.2885309834       -1.5775175341      -14.7195605441  MEMB      122             0.0000000000
     14015       122  SAPE      H3R            20.0554788891       -1.3303915929      -15.4776748674  MEMB      122             0.0000000000
     14016       122  SAPE      H3S            19.7716241690       -1.7847182720      -13.7395797167  MEMB      122             0.0000000000
     14017       122  SAPE      C24            18.3543820231       -0.3635214646      -14.5747093261  MEMB      122             0.0000000000
     14018       122  SAPE      H4R            17.5085107174       -0.8162364461      -14.0534715291  MEMB      122             0.0000000000
     14019       122  SAPE      H4S            17.9782043962       -0.0642761805      -15.5793829023  MEMB      122             0.0000000000
     14020       122  SAPE      C25            18.7326599214        0.8500437640      -13.7642095640  MEMB      122             0.0000000000
     14021       122  SAPE      H5R            19.0185259020        1.7424300889      -14.3446918025  MEMB      122             0.0000000000
     14022       122  SAPE      C26            18.7007632709        0.9297044447      -12.4200340485  MEMB      122             0.0000000000
     14023       122  SAPE      H6R            18.9772570197        1.8866181152      -11.9493851005  MEMB      122             0.0000000000
     14024       122  SAPE      C27            18.2920140672       -0.1681199746      -11.4636923763  MEMB      122             0.0000000000
     14025       122  SAPE      H7R            19.2011099270       -0.7362175126      -11.1656341539  MEMB      122             0.0000000000
     14026       122  SAPE      H7S            17.6321959806       -0.9164050350      -11.9496166860  MEMB      122             0.0000000000
     14027       122  SAPE      C28            17.5726976277        0.3536870050      -10.2483118772  MEMB      122             0.0000000000
     14028       122  SAPE      H8R            16.5386798789        0.6891755795      -10.4275271796  MEMB      122             0.0000000000
     14029       122  SAPE      C29            18.0757060613        0.4863569452       -9.0106291889  MEMB      122             0.0000000000
     14030       122  SAPE      H9R            17.3976885419        0.8346264165       -8.2162173249  MEMB      122             0.0000000000
     14031       122  SAPE      C210           19.4684920179        0.1517529261       -8.5404806875  MEMB      122             0.0000000000
     14032       122  SAPE      H10R           20.1835432672        0.9371162830       -8.8661310763  MEMB      122             0.0000000000
     14033       122  SAPE      H10S           19.8173584144       -0.7878615618       -9.0221355217  MEMB      122             0.0000000000
     14034       122  SAPE      C211           19.5497069779        0.0110223877       -7.0406623065  MEMB      122             0.0000000000
     14035       122  SAPE      H11R           20.0486180645        0.8287847687       -6.4947664935  MEMB      122             0.0000000000
     14036       122  SAPE      C212           19.0655710839       -1.0432128730       -6.3565158594  MEMB      122             0.0000000000
     14037       122  SAPE      H12R           19.2950293476       -1.1614692480       -5.2959689475  MEMB      122             0.0000000000
     14038       122  SAPE      C213           18.3759028646       -2.2489560789       -6.9224546230  MEMB      122             0.0000000000
     14039       122  SAPE      H13R           17.6665238110       -1.9845464741       -7.7357598135  MEMB      122             0.0000000000
     14040       122  SAPE      H13S           17.7669157274       -2.7298833430       -6.1242142723  MEMB      122             0.0000000000
     14041       122  SAPE      C214           19.4742534931       -3.1501073856       -7.4163370156  MEMB      122             0.0000000000
     14042       122  SAPE      H14R           19.8445737877       -2.9216558244       -8.4303156298  MEMB      122             0.0000000000
     14043       122  SAPE      C215           20.0208170701       -4.1511734805       -6.7062263369  MEMB      122             0.0000000000
     14044       122  SAPE      H15R           20.8793528058       -4.6952580823       -7.1290645877  MEMB      122             0.0000000000
     14045       122  SAPE      C216           19.6136432090       -4.5287424046       -5.3012598281  MEMB      122             0.0000000000
     14046       122  SAPE      H16R           18.8011630809       -5.2829673569       -5.3270605410  MEMB      122             0.0000000000
     14047       122  SAPE      H16S           19.2189299065       -3.6369142361       -4.7618198744  MEMB      122             0.0000000000
     14048       122  SAPE      C217           20.7445169063       -5.0760921149       -4.4203879378  MEMB      122             0.0000000000
     14049       122  SAPE      H17R           20.3754632738       -5.1967131995       -3.3767166481  MEMB      122             0.0000000000
     14050       122  SAPE      H17S           21.5340365658       -4.2998975251       -4.4101435707  MEMB      122             0.0000000000
     14051       122  SAPE      C218           21.3655432579       -6.3936776377       -4.8784646789  MEMB      122             0.0000000000
     14052       122  SAPE      H18R           21.2445224027       -6.4880216584       -5.9804280845  MEMB      122             0.0000000000
     14053       122  SAPE      H18S           20.8269584201       -7.2509832225       -4.4158678668  MEMB      122             0.0000000000
     14054       122  SAPE      C219           22.8696493863       -6.4815063105       -4.5745117331  MEMB      122             0.0000000000
     14055       122  SAPE      H19R           23.3138160706       -5.4696499150       -4.6221896415  MEMB      122             0.0000000000
     14056       122  SAPE      H19S           23.3647549955       -7.0712530392       -5.3742645630  MEMB      122             0.0000000000
     14057       122  SAPE      C220           23.1939612267       -7.0985881318       -3.2190926101  MEMB      122             0.0000000000
     14058       122  SAPE      H20R           24.2823921682       -7.2628268807       -3.0938780909  MEMB      122             0.0000000000
     14059       122  SAPE      H20S           22.6742022021       -8.0621485747       -3.0722518209  MEMB      122             0.0000000000
     14060       122  SAPE      H20T           22.8621061513       -6.4153155278       -2.4226914806  MEMB      122             0.0000000000
     14061       122  SAPE      C33            23.1906371780       -2.8541768604      -13.1249172823  MEMB      122             0.0000000000
     14062       122  SAPE      H3X            23.6261714040       -2.0726541768      -12.4571946200  MEMB      122             0.0000000000
     14063       122  SAPE      H3Y            23.9431881136       -3.6388840858      -13.2885403341  MEMB      122             0.0000000000
     14064       122  SAPE      C34            21.9696160401       -3.4383962843      -12.3931455719  MEMB      122             0.0000000000
     14065       122  SAPE      H4X            21.4897237752       -4.1984214326      -13.0451930841  MEMB      122             0.0000000000
     14066       122  SAPE      H4Y            21.2288516316       -2.6203006689      -12.2343138634  MEMB      122             0.0000000000
     14067       122  SAPE      C35            22.2381553507       -4.1032788107      -11.0289332405  MEMB      122             0.0000000000
     14068       122  SAPE      H5X            22.6035952513       -5.1460482221      -11.1683195845  MEMB      122             0.0000000000
     14069       122  SAPE      H5Y            21.2543775723       -4.1718062996      -10.5042697511  MEMB      122             0.0000000000
     14070       122  SAPE      C36            23.2181014072       -3.3659231990      -10.1052954012  MEMB      122             0.0000000000
     14071       122  SAPE      H6X            23.0265073989       -2.2688558468      -10.1570127706  MEMB      122             0.0000000000
     14072       122  SAPE      H6Y            24.2632199932       -3.5578979231      -10.4258929162  MEMB      122             0.0000000000
     14073       122  SAPE      C37            23.0133522907       -3.8039667798       -8.6545320326  MEMB      122             0.0000000000
     14074       122  SAPE      H7X            22.9575936644       -4.9103404108       -8.5583410355  MEMB      122             0.0000000000
     14075       122  SAPE      H7Y            22.0175217424       -3.3889006903       -8.3814649919  MEMB      122             0.0000000000
     14076       122  SAPE      C38            24.0236646397       -3.2625856299       -7.6427092376  MEMB      122             0.0000000000
     14077       122  SAPE      H8X            24.4136706177       -2.2793510303       -7.9763490778  MEMB      122             0.0000000000
     14078       122  SAPE      H8Y            24.8850053844       -3.9528532602       -7.5245009341  MEMB      122             0.0000000000
     14079       122  SAPE      C39            23.3128403207       -3.0336619385       -6.3103050002  MEMB      122             0.0000000000
     14080       122  SAPE      H9X            22.6574909343       -3.8940375207       -6.0786404753  MEMB      122             0.0000000000
     14081       122  SAPE      H9Y            22.6430793776       -2.1683529799       -6.4967330278  MEMB      122             0.0000000000
     14082       122  SAPE      C310           24.2507159400       -2.8174306643       -5.1223269077  MEMB      122             0.0000000000
     14083       122  SAPE      H10X           25.2975270572       -2.7833889306       -5.4856747822  MEMB      122             0.0000000000
     14084       122  SAPE      H10Y           24.2093541794       -3.6878002967       -4.4376077623  MEMB      122             0.0000000000
     14085       122  SAPE      C311           23.9834028721       -1.5578823359       -4.2930693179  MEMB      122             0.0000000000
     14086       122  SAPE      H11X           24.6724451403       -0.7671445595       -4.6491834599  MEMB      122             0.0000000000
     14087       122  SAPE      H11Y           24.2753508365       -1.7499697021       -3.2407361949  MEMB      122             0.0000000000
     14088       122  SAPE      C312           22.5637630172       -0.9826694886       -4.3150077502  MEMB      122             0.0000000000
     14089       122  SAPE      H12X           21.8058977245       -1.7646742990       -4.1427303869  MEMB      122             0.0000000000
     14090       122  SAPE      H12Y           22.3561433934       -0.5488171371       -5.3156281997  MEMB      122             0.0000000000
     14091       122  SAPE      C313           22.4663244255        0.1421755200       -3.2911915479  MEMB      122             0.0000000000
     14092       122  SAPE      H13X           23.3382957844        0.7894410393       -3.5079099076  MEMB      122             0.0000000000
     14093       122  SAPE      H13Y           22.6299807819       -0.2397807805       -2.2636447497  MEMB      122             0.0000000000
     14094       122  SAPE      C314           21.2030669792        0.9995346572       -3.3859812920  MEMB      122             0.0000000000
     14095       122  SAPE      H14X           21.0835510929        1.3677915545       -4.4357584243  MEMB      122             0.0000000000
     14096       122  SAPE      H14Y           21.3615507629        1.8987151907       -2.7520208916  MEMB      122             0.0000000000
     14097       122  SAPE      C315           19.8699479121        0.3522391460       -2.9675394763  MEMB      122             0.0000000000
     14098       122  SAPE      H15X           19.3775171775        0.0107454915       -3.8909292731  MEMB      122             0.0000000000
     14099       122  SAPE      H15Y           19.2158955011        1.1437357441       -2.5542557221  MEMB      122             0.0000000000
     14100       122  SAPE      C316           19.8284622652       -0.8296480470       -1.9854404158  MEMB      122             0.0000000000
     14101       122  SAPE      H16X           20.0797442111       -0.5039778895       -0.9557551815  MEMB      122             0.0000000000
     14102       122  SAPE      H16Y           20.5753739131       -1.5752290827       -2.2809981119  MEMB      122             0.0000000000
     14103       122  SAPE      C317           18.4443343678       -1.5098695928       -2.0570575514  MEMB      122             0.0000000000
     14104       122  SAPE      H17X           18.4827686843       -2.3855326073       -2.7430544812  MEMB      122             0.0000000000
     14105       122  SAPE      H17Y           17.7481989220       -0.7768273254       -2.5278943509  MEMB      122             0.0000000000
     14106       122  SAPE      C318           17.7923261122       -1.9227082858       -0.7414142997  MEMB      122             0.0000000000
     14107       122  SAPE      H18X           18.2228463722       -2.8474628248       -0.3066660994  MEMB      122             0.0000000000
     14108       122  SAPE      H18Y           16.7148191839       -2.1131987883       -0.9471173168  MEMB      122             0.0000000000
     14109       122  SAPE      H18Z           17.8644793772       -1.1050090764        0.0049314061  MEMB      122             0.0000000000
     14110       123  CHL1      C3            -12.1378955436      -17.8249541156      -17.4329986695  MEMB      123             0.0000000000
     14111       123  CHL1      H3            -12.8752710785      -17.1178887947      -16.9918375748  MEMB      123             0.0000000000
     14112       123  CHL1      O3            -12.1132189109      -17.6238034060      -18.8355484722  MEMB      123             0.0000000000
     14113       123  CHL1      H3'           -12.7895683900      -16.9686167093      -19.0394297892  MEMB      123             0.0000000000
     14114       123  CHL1      C4            -10.7469358079      -17.5563679982      -16.8435841849  MEMB      123             0.0000000000
     14115       123  CHL1      H4A           -10.0214879338      -18.2699083347      -17.2917631989  MEMB      123             0.0000000000
     14116       123  CHL1      H4B           -10.4101181070      -16.5429943736      -17.1570940374  MEMB      123             0.0000000000
     14117       123  CHL1      C5            -10.7986562178      -17.7050605040      -15.3379538543  MEMB      123             0.0000000000
     14118       123  CHL1      C6            -10.4647477730      -16.6864702175      -14.5359799662  MEMB      123             0.0000000000
     14119       123  CHL1      H6            -10.0894866106      -15.7461793861      -14.9723697264  MEMB      123             0.0000000000
     14120       123  CHL1      C7            -10.4866530514      -16.7645653117      -13.0409534930  MEMB      123             0.0000000000
     14121       123  CHL1      H7A            -9.5415688659      -16.3602206925      -12.6160338212  MEMB      123             0.0000000000
     14122       123  CHL1      H7B           -11.3017475221      -16.1127050399      -12.6666040003  MEMB      123             0.0000000000
     14123       123  CHL1      C8            -10.6920400179      -18.1955086261      -12.4775580974  MEMB      123             0.0000000000
     14124       123  CHL1      H8             -9.7005221103      -18.6969449926      -12.4568735399  MEMB      123             0.0000000000
     14125       123  CHL1      C14           -11.2626136040      -18.1031160503      -11.0779987889  MEMB      123             0.0000000000
     14126       123  CHL1      H14           -12.3031564495      -17.7123966762      -11.2066358736  MEMB      123             0.0000000000
     14127       123  CHL1      C15           -10.6062786799      -17.1043695692      -10.1224230847  MEMB      123             0.0000000000
     14128       123  CHL1      H15A           -9.5032760357      -17.2271559378      -10.1163783965  MEMB      123             0.0000000000
     14129       123  CHL1      H15B          -10.8668164636      -16.0720424303      -10.4140922371  MEMB      123             0.0000000000
     14130       123  CHL1      C16           -11.2068929236      -17.4727689978       -8.7711808103  MEMB      123             0.0000000000
     14131       123  CHL1      H16A          -10.3853852714      -17.6083342461       -8.0345884979  MEMB      123             0.0000000000
     14132       123  CHL1      H16B          -11.8966740971      -16.6861712610       -8.4031098705  MEMB      123             0.0000000000
     14133       123  CHL1      C17           -11.9859863236      -18.8077327173       -8.9819676069  MEMB      123             0.0000000000
     14134       123  CHL1      H17           -13.0515096438      -18.5422515264       -9.1725613749  MEMB      123             0.0000000000
     14135       123  CHL1      C13           -11.4437739051      -19.4044219662      -10.3122415495  MEMB      123             0.0000000000
     14136       123  CHL1      C18           -10.0742015881      -20.0841692557      -10.0606086195  MEMB      123             0.0000000000
     14137       123  CHL1      H18A           -9.5866589592      -20.3611509810      -11.0153083726  MEMB      123             0.0000000000
     14138       123  CHL1      H18B           -9.3854025645      -19.4246981444       -9.4985056514  MEMB      123             0.0000000000
     14139       123  CHL1      H18C          -10.2144670410      -21.0179961641       -9.4811768885  MEMB      123             0.0000000000
     14140       123  CHL1      C12           -12.3691568714      -20.3183530486      -11.1539449379  MEMB      123             0.0000000000
     14141       123  CHL1      H12A          -12.4098701702      -21.3367603871      -10.7187936674  MEMB      123             0.0000000000
     14142       123  CHL1      H12B          -13.3969295354      -19.8979098018      -11.1505421094  MEMB      123             0.0000000000
     14143       123  CHL1      C11           -11.8798432609      -20.4263807577      -12.6215760006  MEMB      123             0.0000000000
     14144       123  CHL1      H11A          -10.9111225008      -20.9676291424      -12.6099996371  MEMB      123             0.0000000000
     14145       123  CHL1      H11B          -12.6019042082      -21.0317202193      -13.2050083149  MEMB      123             0.0000000000
     14146       123  CHL1      C9            -11.6564791731      -19.0404142919      -13.3043892124  MEMB      123             0.0000000000
     14147       123  CHL1      H9            -12.6397444453      -18.5275812133      -13.2387638699  MEMB      123             0.0000000000
     14148       123  CHL1      C10           -11.3306148763      -19.0606153345      -14.8221377288  MEMB      123             0.0000000000
     14149       123  CHL1      C19           -10.1824692161      -20.0619465269      -15.0728280055  MEMB      123             0.0000000000
     14150       123  CHL1      H19A          -10.4553018964      -21.0582285235      -14.6884616912  MEMB      123             0.0000000000
     14151       123  CHL1      H19B           -9.9648180277      -20.1744645341      -16.1547277668  MEMB      123             0.0000000000
     14152       123  CHL1      H19C           -9.2545107504      -19.7339093763      -14.5580656188  MEMB      123             0.0000000000
     14153       123  CHL1      C1            -12.6163370775      -19.4909965006      -15.5979158183  MEMB      123             0.0000000000
     14154       123  CHL1      H1A           -12.8244692418      -20.5626730290      -15.3928509443  MEMB      123             0.0000000000
     14155       123  CHL1      H1B           -13.4785703538      -18.9064495701      -15.2100845562  MEMB      123             0.0000000000
     14156       123  CHL1      C2            -12.5526696822      -19.2680265637      -17.1192851277  MEMB      123             0.0000000000
     14157       123  CHL1      H2A           -13.5326670341      -19.4948232258      -17.5878202948  MEMB      123             0.0000000000
     14158       123  CHL1      H2B           -11.8009389234      -19.9584944551      -17.5613203985  MEMB      123             0.0000000000
     14159       123  CHL1      C20           -11.9322601874      -19.6355855426       -7.7114948857  MEMB      123             0.0000000000
     14160       123  CHL1      H20           -10.8733991577      -19.9483941932       -7.5434520893  MEMB      123             0.0000000000
     14161       123  CHL1      C21           -12.7917315969      -20.8808326668       -7.8554855651  MEMB      123             0.0000000000
     14162       123  CHL1      H21A          -12.4211826217      -21.5387925301       -8.6625610804  MEMB      123             0.0000000000
     14163       123  CHL1      H21B          -13.8503118007      -20.6144482355       -8.0609411293  MEMB      123             0.0000000000
     14164       123  CHL1      H21C          -12.7513031787      -21.4550424041       -6.9029060682  MEMB      123             0.0000000000
     14165       123  CHL1      C22           -12.3917404135      -18.8959934489       -6.4310351321  MEMB      123             0.0000000000
     14166       123  CHL1      H22A          -12.3621690921      -17.7905572107       -6.5210274131  MEMB      123             0.0000000000
     14167       123  CHL1      H22B          -13.4512493164      -19.1657366891       -6.2246229702  MEMB      123             0.0000000000
     14168       123  CHL1      C23           -11.4819285903      -19.3080473903       -5.2720980881  MEMB      123             0.0000000000
     14169       123  CHL1      H23A          -11.2744760801      -20.3992766239       -5.3298249598  MEMB      123             0.0000000000
     14170       123  CHL1      H23B          -10.5039874812      -18.7881679001       -5.4100686411  MEMB      123             0.0000000000
     14171       123  CHL1      C24           -12.0102541022      -18.9697352284       -3.8785008934  MEMB      123             0.0000000000
     14172       123  CHL1      H24A          -11.1706192384      -19.1994273017       -3.1937530131  MEMB      123             0.0000000000
     14173       123  CHL1      H24B          -12.2414150195      -17.8833404685       -3.8148662764  MEMB      123             0.0000000000
     14174       123  CHL1      C25           -13.2134634653      -19.7972476885       -3.3869252084  MEMB      123             0.0000000000
     14175       123  CHL1      H25           -14.0398889072      -19.6975606682       -4.1292667552  MEMB      123             0.0000000000
     14176       123  CHL1      C26           -12.8497497758      -21.2798637356       -3.2308476851  MEMB      123             0.0000000000
     14177       123  CHL1      H26A          -12.0072361937      -21.3842858223       -2.5128795043  MEMB      123             0.0000000000
     14178       123  CHL1      H26B          -13.7158955173      -21.8586353374       -2.8477281770  MEMB      123             0.0000000000
     14179       123  CHL1      H26C          -12.5409983181      -21.7163450930       -4.2034295854  MEMB      123             0.0000000000
     14180       123  CHL1      C27           -13.7125942224      -19.2540661923       -2.0414448258  MEMB      123             0.0000000000
     14181       123  CHL1      H27A          -12.9978152278      -19.4973857366       -1.2278923273  MEMB      123             0.0000000000
     14182       123  CHL1      H27B          -13.8186834435      -18.1542894996       -2.0901090304  MEMB      123             0.0000000000
     14183       123  CHL1      H27C          -14.7022857328      -19.6849988847       -1.7921434175  MEMB      123             0.0000000000
     14184       124  SAPE      N              16.6439215102       11.8197425649      -21.4633479549  MEMB      124             0.0000000000
     14185       124  SAPE      HN1            16.0157109555       11.5304741238      -22.2392032033  MEMB      124             0.0000000000
     14186       124  SAPE      HN2            16.2131084055       11.5667250615      -20.5512032824  MEMB      124             0.0000000000
     14187       124  SAPE      HN3            16.6953025743       12.8635375687      -21.5587616829  MEMB      124             0.0000000000
     14188       124  SAPE      C12            18.0298413118       11.2580600163      -21.7050348070  MEMB      124             0.0000000000
     14189       124  SAPE      H12A           18.4736434389       11.8337130737      -22.5442042825  MEMB      124             0.0000000000
     14190       124  SAPE      H12B           17.9375911752       10.1954212175      -22.0055513881  MEMB      124             0.0000000000
     14191       124  SAPE      C11            18.9531438986       11.3737706985      -20.4898349179  MEMB      124             0.0000000000
     14192       124  SAPE      H11A           18.5390812381       10.7406944015      -19.6623931477  MEMB      124             0.0000000000
     14193       124  SAPE      H11B           18.9959025281       12.4279255888      -20.1263947342  MEMB      124             0.0000000000
     14194       124  SAPE      P              21.0760413039        9.8698539962      -20.1048934331  MEMB      124             0.0000000000
     14195       124  SAPE      O13            20.5757171476        8.5475351522      -20.5187872664  MEMB      124             0.0000000000
     14196       124  SAPE      O14            22.5271751855       10.0989009476      -20.2599308016  MEMB      124             0.0000000000
     14197       124  SAPE      O12            20.2681217505       10.9822103701      -20.8920578994  MEMB      124             0.0000000000
     14198       124  SAPE      O11            20.6506331720       10.1792223136      -18.6217178163  MEMB      124             0.0000000000
     14199       124  SAPE      C1             21.0108592252       11.4699040272      -18.1229006467  MEMB      124             0.0000000000
     14200       124  SAPE      HA             20.9054056905       12.2862932090      -18.8748411587  MEMB      124             0.0000000000
     14201       124  SAPE      HB             20.3077365972       11.7191935920      -17.3001672850  MEMB      124             0.0000000000
     14202       124  SAPE      C2             22.4512244493       11.4436285112      -17.5825184680  MEMB      124             0.0000000000
     14203       124  SAPE      HS             23.1299156075       10.9767538643      -18.3266930249  MEMB      124             0.0000000000
     14204       124  SAPE      O21            22.3494785106       10.6477674733      -16.4002989669  MEMB      124             0.0000000000
     14205       124  SAPE      C21            23.3952962824        9.9837505651      -16.0526079630  MEMB      124             0.0000000000
     14206       124  SAPE      O22            24.4693737712        9.9419726489      -16.6280764835  MEMB      124             0.0000000000
     14207       124  SAPE      C22            23.0873924699        9.3321961480      -14.6946575170  MEMB      124             0.0000000000
     14208       124  SAPE      H2R            22.0019167739        9.3456995486      -14.4786175230  MEMB      124             0.0000000000
     14209       124  SAPE      H2S            23.4199492163        8.2968500980      -14.8261237816  MEMB      124             0.0000000000
     14210       124  SAPE      C3             23.0236629941       12.8620020967      -17.3002570364  MEMB      124             0.0000000000
     14211       124  SAPE      HX             22.5847276492       13.5989089822      -18.0169568532  MEMB      124             0.0000000000
     14212       124  SAPE      HY             24.1152405798       12.8158962702      -17.5186373784  MEMB      124             0.0000000000
     14213       124  SAPE      O31            22.8187250761       13.2169593757      -15.9128810886  MEMB      124             0.0000000000
     14214       124  SAPE      C31            21.5287308005       13.4186724474      -15.6582107707  MEMB      124             0.0000000000
     14215       124  SAPE      O32            20.7744158652       14.0998285467      -16.3174410906  MEMB      124             0.0000000000
     14216       124  SAPE      C32            21.0373142707       12.4773317047      -14.5692979957  MEMB      124             0.0000000000
     14217       124  SAPE      H2X            21.7780371708       11.6725509040      -14.4429568372  MEMB      124             0.0000000000
     14218       124  SAPE      H2Y            20.0821177254       12.0384627070      -14.9252403308  MEMB      124             0.0000000000
     14219       124  SAPE      C23            23.9039944858       10.0828538603      -13.6216928244  MEMB      124             0.0000000000
     14220       124  SAPE      H3R            23.6790973321       11.1714956246      -13.6447694918  MEMB      124             0.0000000000
     14221       124  SAPE      H3S            24.9455385644        9.9348798980      -13.9786546511  MEMB      124             0.0000000000
     14222       124  SAPE      C24            23.9863551915        9.6283304253      -12.1420338994  MEMB      124             0.0000000000
     14223       124  SAPE      H4R            24.6511475994       10.3942963681      -11.6984685454  MEMB      124             0.0000000000
     14224       124  SAPE      H4S            24.6079665165        8.7134798255      -12.1066006539  MEMB      124             0.0000000000
     14225       124  SAPE      C25            22.7920253359        9.4449072704      -11.2371801210  MEMB      124             0.0000000000
     14226       124  SAPE      H5R            21.9736787738        8.8290286722      -11.6451659299  MEMB      124             0.0000000000
     14227       124  SAPE      C26            22.6834869430        9.9140282851       -9.9784063512  MEMB      124             0.0000000000
     14228       124  SAPE      H6R            21.8224635416        9.5946272017       -9.3674378430  MEMB      124             0.0000000000
     14229       124  SAPE      C27            23.7110467740       10.7141941219       -9.2171976947  MEMB      124             0.0000000000
     14230       124  SAPE      H7R            23.2119693622       11.5437603561       -8.6699705582  MEMB      124             0.0000000000
     14231       124  SAPE      H7S            24.4259731224       11.2179903518       -9.9018042349  MEMB      124             0.0000000000
     14232       124  SAPE      C28            24.4579681196        9.7883757077       -8.2915012941  MEMB      124             0.0000000000
     14233       124  SAPE      H8R            24.5470501947        8.7436953295       -8.6383636973  MEMB      124             0.0000000000
     14234       124  SAPE      C29            25.0460191301       10.1158481204       -7.1281095238  MEMB      124             0.0000000000
     14235       124  SAPE      H9R            25.5625809122        9.3155918603       -6.5752919060  MEMB      124             0.0000000000
     14236       124  SAPE      C210           25.1051112934       11.4742638540       -6.4728859756  MEMB      124             0.0000000000
     14237       124  SAPE      H10R           24.6281761112       12.2562162068       -7.1031655465  MEMB      124             0.0000000000
     14238       124  SAPE      H10S           26.1674617101       11.7914796017       -6.3815797019  MEMB      124             0.0000000000
     14239       124  SAPE      C211           24.4986793165       11.3672490966       -5.0919542900  MEMB      124             0.0000000000
     14240       124  SAPE      H11R           25.1357229078       10.8409317348       -4.3656941530  MEMB      124             0.0000000000
     14241       124  SAPE      C212           23.3023904141       11.8284562970       -4.6710518852  MEMB      124             0.0000000000
     14242       124  SAPE      H12R           22.9948784596       11.6205893316       -3.6393358765  MEMB      124             0.0000000000
     14243       124  SAPE      C213           22.2914563318       12.5684050662       -5.5022354454  MEMB      124             0.0000000000
     14244       124  SAPE      H13R           22.7183736715       12.6418424702       -6.5204147661  MEMB      124             0.0000000000
     14245       124  SAPE      H13S           22.2354836404       13.6000781890       -5.0961621652  MEMB      124             0.0000000000
     14246       124  SAPE      C214           20.8562691790       12.1917595832       -5.7417072921  MEMB      124             0.0000000000
     14247       124  SAPE      H14R           20.6557241352       11.9627507779       -6.7960897350  MEMB      124             0.0000000000
     14248       124  SAPE      C215           19.8316717150       12.2346182129       -4.8707774070  MEMB      124             0.0000000000
     14249       124  SAPE      H15R           18.8259395278       11.9125132949       -5.1923461473  MEMB      124             0.0000000000
     14250       124  SAPE      C216           19.9625079418       12.6777760496       -3.4412661528  MEMB      124             0.0000000000
     14251       124  SAPE      H16R           21.0198963820       12.5539817686       -3.1124160806  MEMB      124             0.0000000000
     14252       124  SAPE      H16S           19.3617821288       12.0061823518       -2.7892642676  MEMB      124             0.0000000000
     14253       124  SAPE      C217           19.5984222037       14.1317141457       -3.0880436800  MEMB      124             0.0000000000
     14254       124  SAPE      H17R           18.5059590473       14.3146171934       -3.1764781124  MEMB      124             0.0000000000
     14255       124  SAPE      H17S           20.1272461768       14.8499929208       -3.7559782668  MEMB      124             0.0000000000
     14256       124  SAPE      C218           20.0629727270       14.3589897405       -1.6484636687  MEMB      124             0.0000000000
     14257       124  SAPE      H18R           21.1763940840       14.3011354007       -1.6304839599  MEMB      124             0.0000000000
     14258       124  SAPE      H18S           19.6956196797       13.5207841821       -1.0177584297  MEMB      124             0.0000000000
     14259       124  SAPE      C219           19.6280418832       15.6659521805       -0.9996122421  MEMB      124             0.0000000000
     14260       124  SAPE      H19R           18.5222961069       15.7511795926       -0.9609214610  MEMB      124             0.0000000000
     14261       124  SAPE      H19S           19.9877694384       16.5163483535       -1.6141151382  MEMB      124             0.0000000000
     14262       124  SAPE      C220           20.1975195440       15.7472287541        0.4141548177  MEMB      124             0.0000000000
     14263       124  SAPE      H20R           20.6792496723       16.7300322684        0.5934779441  MEMB      124             0.0000000000
     14264       124  SAPE      H20S           20.9854246589       14.9795431459        0.5505883849  MEMB      124             0.0000000000
     14265       124  SAPE      H20T           19.4182043295       15.5914268281        1.1843482761  MEMB      124             0.0000000000
     14266       124  SAPE      C33            20.8599109107       13.1714147505      -13.2314519967  MEMB      124             0.0000000000
     14267       124  SAPE      H3X            19.9510494922       13.8078207055      -13.2059254775  MEMB      124             0.0000000000
     14268       124  SAPE      H3Y            21.7680506880       13.8086325589      -13.1352175968  MEMB      124             0.0000000000
     14269       124  SAPE      C34            20.8880678042       12.2104412279      -12.0477257945  MEMB      124             0.0000000000
     14270       124  SAPE      H4X            21.5127387193       12.6627621911      -11.2487183427  MEMB      124             0.0000000000
     14271       124  SAPE      H4Y            21.3924603762       11.2776378878      -12.3720313704  MEMB      124             0.0000000000
     14272       124  SAPE      C35            19.5148003513       11.8772350811      -11.4449493242  MEMB      124             0.0000000000
     14273       124  SAPE      H5X            19.0787428201       11.1684724793      -12.1608361073  MEMB      124             0.0000000000
     14274       124  SAPE      H5Y            18.8343032475       12.7472235920      -11.4516601451  MEMB      124             0.0000000000
     14275       124  SAPE      C36            19.6732405401       11.2936851782      -10.0259409348  MEMB      124             0.0000000000
     14276       124  SAPE      H6X            20.4853410047       11.8356545740       -9.4967426095  MEMB      124             0.0000000000
     14277       124  SAPE      H6Y            20.0354426961       10.2618060167      -10.1555928579  MEMB      124             0.0000000000
     14278       124  SAPE      C37            18.4588183275       11.2312881465       -9.0799110800  MEMB      124             0.0000000000
     14279       124  SAPE      H7X            17.5596856073       10.9353668632       -9.6542132339  MEMB      124             0.0000000000
     14280       124  SAPE      H7Y            18.2817472176       12.2330669738       -8.6301711679  MEMB      124             0.0000000000
     14281       124  SAPE      C38            18.6993144812       10.1813429652       -7.9757213459  MEMB      124             0.0000000000
     14282       124  SAPE      H8X            19.4296108528       10.5595663006       -7.2476520294  MEMB      124             0.0000000000
     14283       124  SAPE      H8Y            19.1756865354        9.2955158910       -8.4526784030  MEMB      124             0.0000000000
     14284       124  SAPE      C39            17.4787885848        9.6494556380       -7.2094619528  MEMB      124             0.0000000000
     14285       124  SAPE      H9X            16.5933480457        9.6950380951       -7.8815500189  MEMB      124             0.0000000000
     14286       124  SAPE      H9Y            17.2492596516       10.2811227541       -6.3262438674  MEMB      124             0.0000000000
     14287       124  SAPE      C310           17.6709012142        8.1705685399       -6.8067915043  MEMB      124             0.0000000000
     14288       124  SAPE      H10X           18.0910003157        7.6201359459       -7.6704758238  MEMB      124             0.0000000000
     14289       124  SAPE      H10Y           16.6702581818        7.7341748535       -6.5810884369  MEMB      124             0.0000000000
     14290       124  SAPE      C311           18.6206980252        7.8745491913       -5.6349777289  MEMB      124             0.0000000000
     14291       124  SAPE      H11X           18.5072692625        6.8052222125       -5.3444848532  MEMB      124             0.0000000000
     14292       124  SAPE      H11Y           18.3251998421        8.5067449201       -4.7851612361  MEMB      124             0.0000000000
     14293       124  SAPE      C312           20.1018865840        8.2030972159       -5.8465371778  MEMB      124             0.0000000000
     14294       124  SAPE      H12X           20.1664507533        9.3124561584       -5.8667863392  MEMB      124             0.0000000000
     14295       124  SAPE      H12Y           20.4839553535        7.8268800651       -6.8185074020  MEMB      124             0.0000000000
     14296       124  SAPE      C313           20.9896699071        7.7668860963       -4.6704207831  MEMB      124             0.0000000000
     14297       124  SAPE      H13X           21.4278580257        6.7696525997       -4.8659405293  MEMB      124             0.0000000000
     14298       124  SAPE      H13Y           20.3771177362        7.6824348851       -3.7482912620  MEMB      124             0.0000000000
     14299       124  SAPE      C314           22.0861514272        8.8044741020       -4.4026763164  MEMB      124             0.0000000000
     14300       124  SAPE      H14X           21.6532889623        9.8159032989       -4.5002895909  MEMB      124             0.0000000000
     14301       124  SAPE      H14Y           22.8426690838        8.7216896660       -5.2148442008  MEMB      124             0.0000000000
     14302       124  SAPE      C315           22.7767254759        8.6994066308       -3.0301786584  MEMB      124             0.0000000000
     14303       124  SAPE      H15X           23.7952524474        9.1370297107       -3.1384238537  MEMB      124             0.0000000000
     14304       124  SAPE      H15Y           22.8951009982        7.6330779860       -2.7440183722  MEMB      124             0.0000000000
     14305       124  SAPE      C316           22.0734989437        9.4317793434       -1.8813600434  MEMB      124             0.0000000000
     14306       124  SAPE      H16X           21.2900103555        8.7492751052       -1.4811637649  MEMB      124             0.0000000000
     14307       124  SAPE      H16Y           21.5641733475       10.3446809708       -2.2577023697  MEMB      124             0.0000000000
     14308       124  SAPE      C317           23.0406216555        9.8304364668       -0.7500574048  MEMB      124             0.0000000000
     14309       124  SAPE      H17X           23.7111162715        8.9654681026       -0.5290829388  MEMB      124             0.0000000000
     14310       124  SAPE      H17Y           22.4421036250       10.0370619804        0.1671955061  MEMB      124             0.0000000000
     14311       124  SAPE      C318           23.9213123389       11.0435303313       -1.0356343728  MEMB      124             0.0000000000
     14312       124  SAPE      H18X           24.8289726876       10.7191804335       -1.5904367562  MEMB      124             0.0000000000
     14313       124  SAPE      H18Y           24.2321205481       11.5238552438       -0.0833718488  MEMB      124             0.0000000000
     14314       124  SAPE      H18Z           23.3881808212       11.8064950549       -1.6355145260  MEMB      124             0.0000000000
     14315       125  CHL1      C3             13.4878145797       18.6983438835      -17.8722008809  MEMB      125             0.0000000000
     14316       125  CHL1      H3             12.3904668458       18.8612037654      -17.9738743683  MEMB      125             0.0000000000
     14317       125  CHL1      O3             14.0349211552       18.4366695075      -19.1555712918  MEMB      125             0.0000000000
     14318       125  CHL1      H3'            14.7427151694       17.8010490829      -18.9923468795  MEMB      125             0.0000000000
     14319       125  CHL1      C4             14.1421802638       20.0040109445      -17.3472625777  MEMB      125             0.0000000000
     14320       125  CHL1      H4A            15.1097918896       20.1217104616      -17.8636043445  MEMB      125             0.0000000000
     14321       125  CHL1      H4B            13.5166443377       20.8477104064      -17.7067580892  MEMB      125             0.0000000000
     14322       125  CHL1      C5             14.4783194905       20.2001239249      -15.8942151948  MEMB      125             0.0000000000
     14323       125  CHL1      C6             14.9925032697       21.3680960179      -15.4602306243  MEMB      125             0.0000000000
     14324       125  CHL1      H6             15.1494437155       22.2059526628      -16.1615431981  MEMB      125             0.0000000000
     14325       125  CHL1      C7             15.3945942241       21.6252713595      -14.0370305056  MEMB      125             0.0000000000
     14326       125  CHL1      H7A            16.5124638918       21.6137763984      -14.0111314334  MEMB      125             0.0000000000
     14327       125  CHL1      H7B            15.1047441392       22.6432309328      -13.7136482427  MEMB      125             0.0000000000
     14328       125  CHL1      C8             14.9193679846       20.5417773933      -13.0176254817  MEMB      125             0.0000000000
     14329       125  CHL1      H8             15.8793404085       20.0482215435      -12.7730256471  MEMB      125             0.0000000000
     14330       125  CHL1      C14            14.2298079416       21.0108381918      -11.7346169937  MEMB      125             0.0000000000
     14331       125  CHL1      H14            13.1376219830       20.9766749165      -11.9406533803  MEMB      125             0.0000000000
     14332       125  CHL1      C15            14.4146850962       22.4186616130      -11.1313759776  MEMB      125             0.0000000000
     14333       125  CHL1      H15A           15.4742435076       22.7278927899      -11.2012381834  MEMB      125             0.0000000000
     14334       125  CHL1      H15B           13.7735914969       23.1556676350      -11.6627322570  MEMB      125             0.0000000000
     14335       125  CHL1      C16            13.9845304142       22.2451032110       -9.6528027382  MEMB      125             0.0000000000
     14336       125  CHL1      H16A           14.7647251540       22.6430590244       -8.9759358729  MEMB      125             0.0000000000
     14337       125  CHL1      H16B           13.0268848761       22.7713586088       -9.4508169671  MEMB      125             0.0000000000
     14338       125  CHL1      C17            13.7868322470       20.7115034860       -9.4167802289  MEMB      125             0.0000000000
     14339       125  CHL1      H17            12.7326511630       20.5043934728       -9.5399690621  MEMB      125             0.0000000000
     14340       125  CHL1      C13            14.4384350755       20.0141367657      -10.6127691902  MEMB      125             0.0000000000
     14341       125  CHL1      C18            15.9235055511       19.9524529477      -10.2471116644  MEMB      125             0.0000000000
     14342       125  CHL1      H18A           15.9989038049       19.2273424867       -9.4207889520  MEMB      125             0.0000000000
     14343       125  CHL1      H18B           16.5749692911       19.5710583465      -11.0480932353  MEMB      125             0.0000000000
     14344       125  CHL1      H18C           16.3197861671       20.9305902516       -9.9135124013  MEMB      125             0.0000000000
     14345       125  CHL1      C12            13.8306694694       18.6441019154      -11.0183628127  MEMB      125             0.0000000000
     14346       125  CHL1      H12A           14.2733304529       17.8336950632      -10.4047976824  MEMB      125             0.0000000000
     14347       125  CHL1      H12B           12.7374695786       18.6539807550      -10.8321017751  MEMB      125             0.0000000000
     14348       125  CHL1      C11            14.1036992834       18.2317920847      -12.4762239934  MEMB      125             0.0000000000
     14349       125  CHL1      H11A           13.4276861495       17.4095386632      -12.7498242764  MEMB      125             0.0000000000
     14350       125  CHL1      H11B           15.1152535159       17.7985059898      -12.4544194024  MEMB      125             0.0000000000
     14351       125  CHL1      C9             14.0351532374       19.3864293431      -13.5209662664  MEMB      125             0.0000000000
     14352       125  CHL1      H9             12.9768651861       19.6994971195      -13.5106600103  MEMB      125             0.0000000000
     14353       125  CHL1      C10            14.3031606743       18.9939991528      -14.9770132848  MEMB      125             0.0000000000
     14354       125  CHL1      C19            15.6887259411       18.4259842623      -15.0032412175  MEMB      125             0.0000000000
     14355       125  CHL1      H19A           15.7361617341       17.4919642194      -14.4047610833  MEMB      125             0.0000000000
     14356       125  CHL1      H19B           15.9577422047       18.1556208601      -16.0360245521  MEMB      125             0.0000000000
     14357       125  CHL1      H19C           16.4594681137       19.1421463239      -14.6396821510  MEMB      125             0.0000000000
     14358       125  CHL1      C1             13.3886622894       17.8521984212      -15.5022041290  MEMB      125             0.0000000000
     14359       125  CHL1      H1A            13.6053450570       16.9570290776      -14.8778134005  MEMB      125             0.0000000000
     14360       125  CHL1      H1B            12.3249727906       18.1243549507      -15.3636352707  MEMB      125             0.0000000000
     14361       125  CHL1      C2             13.6589758930       17.4670934383      -16.9736043513  MEMB      125             0.0000000000
     14362       125  CHL1      H2A            12.9568680654       16.6630693102      -17.2953471823  MEMB      125             0.0000000000
     14363       125  CHL1      H2B            14.6779562955       17.0383604674      -17.0905642560  MEMB      125             0.0000000000
     14364       125  CHL1      C20            14.0965611047       20.1751145558       -8.0187871878  MEMB      125             0.0000000000
     14365       125  CHL1      H20            15.1954260288       20.2311436698       -7.8648214192  MEMB      125             0.0000000000
     14366       125  CHL1      C21            13.5732378732       18.7207362196       -7.8650267891  MEMB      125             0.0000000000
     14367       125  CHL1      H21A           12.5012496596       18.6553865281       -8.1457395620  MEMB      125             0.0000000000
     14368       125  CHL1      H21B           13.6731588281       18.3812573009       -6.8133076399  MEMB      125             0.0000000000
     14369       125  CHL1      H21C           14.1661595228       18.0103427380       -8.4667289859  MEMB      125             0.0000000000
     14370       125  CHL1      C22            13.5182490839       20.9619120348       -6.8472331224  MEMB      125             0.0000000000
     14371       125  CHL1      H22A           13.4039026523       22.0377724115       -7.0700095194  MEMB      125             0.0000000000
     14372       125  CHL1      H22B           12.5540026804       20.4727931233       -6.5853312915  MEMB      125             0.0000000000
     14373       125  CHL1      C23            14.4322047587       20.8289836218       -5.6509845939  MEMB      125             0.0000000000
     14374       125  CHL1      H23A           14.5585185795       19.7344577590       -5.5503403133  MEMB      125             0.0000000000
     14375       125  CHL1      H23B           15.3891984535       21.3134827559       -5.9469467746  MEMB      125             0.0000000000
     14376       125  CHL1      C24            13.9766238909       21.4083834238       -4.3202495464  MEMB      125             0.0000000000
     14377       125  CHL1      H24A           14.2196642254       22.4978910743       -4.3113414438  MEMB      125             0.0000000000
     14378       125  CHL1      H24B           12.8778452208       21.3349421995       -4.2425190848  MEMB      125             0.0000000000
     14379       125  CHL1      C25            14.5802793187       20.7615592455       -3.0397009155  MEMB      125             0.0000000000
     14380       125  CHL1      H25            15.2249329160       21.5633829716       -2.6174605920  MEMB      125             0.0000000000
     14381       125  CHL1      C26            13.5140895978       20.4417726860       -2.0314123257  MEMB      125             0.0000000000
     14382       125  CHL1      H26A           13.9128570541       20.4479131927       -0.9946076173  MEMB      125             0.0000000000
     14383       125  CHL1      H26B           12.6912793756       21.1699595807       -2.1333034910  MEMB      125             0.0000000000
     14384       125  CHL1      H26C           13.1220205837       19.4208204689       -2.2410912605  MEMB      125             0.0000000000
     14385       125  CHL1      C27            15.3885514505       19.4588348831       -3.1269407479  MEMB      125             0.0000000000
     14386       125  CHL1      H27A           15.1343112907       18.8127064113       -3.9805704620  MEMB      125             0.0000000000
     14387       125  CHL1      H27B           16.4537297804       19.7092542199       -3.1915355402  MEMB      125             0.0000000000
     14388       125  CHL1      H27C           15.2713343425       18.8342581162       -2.2299931200  MEMB      125             0.0000000000
     14389       126  CHL1      C3            -23.1734572784       12.8111025746      -17.4674064352  MEMB      126             0.0000000000
     14390       126  CHL1      H3            -23.7236719660       13.7854413291      -17.4507442806  MEMB      126             0.0000000000
     14391       126  CHL1      O3            -23.2035179261       12.2353220267      -18.7686284001  MEMB      126             0.0000000000
     14392       126  CHL1      H3'           -23.9947527906       11.6796448602      -18.7547786361  MEMB      126             0.0000000000
     14393       126  CHL1      C4            -21.7056766046       13.0612679945      -17.0337441767  MEMB      126             0.0000000000
     14394       126  CHL1      H4A           -21.1471714007       12.1179542590      -17.2197404778  MEMB      126             0.0000000000
     14395       126  CHL1      H4B           -21.2562379727       13.8206585353      -17.7098144871  MEMB      126             0.0000000000
     14396       126  CHL1      C5            -21.5498559299       13.4554781440      -15.5737323881  MEMB      126             0.0000000000
     14397       126  CHL1      C6            -20.8888619322       14.5241569473      -15.0666212196  MEMB      126             0.0000000000
     14398       126  CHL1      H6            -20.3658850862       15.2174582891      -15.7439026621  MEMB      126             0.0000000000
     14399       126  CHL1      C7            -20.6998041437       14.7704256722      -13.5717932208  MEMB      126             0.0000000000
     14400       126  CHL1      H7A           -19.6327882404       14.9777063617      -13.3324628098  MEMB      126             0.0000000000
     14401       126  CHL1      H7B           -21.2806280476       15.6709223224      -13.2722176454  MEMB      126             0.0000000000
     14402       126  CHL1      C8            -21.1419677768       13.5783327232      -12.6520348717  MEMB      126             0.0000000000
     14403       126  CHL1      H8            -20.3082987132       12.8426163695      -12.6393442178  MEMB      126             0.0000000000
     14404       126  CHL1      C14           -21.4540277454       13.9876851371      -11.2126104178  MEMB      126             0.0000000000
     14405       126  CHL1      H14           -22.3070489433       14.7024740991      -11.2678729206  MEMB      126             0.0000000000
     14406       126  CHL1      C15           -20.3609873100       14.7396342461      -10.4394128061  MEMB      126             0.0000000000
     14407       126  CHL1      H15A          -19.3575907575       14.3314485690      -10.6829906326  MEMB      126             0.0000000000
     14408       126  CHL1      H15B          -20.4098109252       15.8125067519      -10.7019628628  MEMB      126             0.0000000000
     14409       126  CHL1      C16           -20.6806125341       14.4969210277       -8.9557883542  MEMB      126             0.0000000000
     14410       126  CHL1      H16A          -19.8195452912       13.9773856752       -8.4842890145  MEMB      126             0.0000000000
     14411       126  CHL1      H16B          -20.8724088630       15.4437342467       -8.4112730049  MEMB      126             0.0000000000
     14412       126  CHL1      C17           -21.9432871030       13.5854322846       -8.9220740547  MEMB      126             0.0000000000
     14413       126  CHL1      H17           -22.7929562747       14.2958243332       -8.9448508328  MEMB      126             0.0000000000
     14414       126  CHL1      C13           -21.9347546487       12.8620517527      -10.2868261944  MEMB      126             0.0000000000
     14415       126  CHL1      C18           -20.8715837200       11.7551288687      -10.2374104958  MEMB      126             0.0000000000
     14416       126  CHL1      H18A          -19.9110782609       12.2043196499       -9.9576649678  MEMB      126             0.0000000000
     14417       126  CHL1      H18B          -21.1124930134       10.9842029404       -9.4860932018  MEMB      126             0.0000000000
     14418       126  CHL1      H18C          -20.7564707150       11.2492409935      -11.2166831631  MEMB      126             0.0000000000
     14419       126  CHL1      C12           -23.2544229156       12.3027793474      -10.8181361622  MEMB      126             0.0000000000
     14420       126  CHL1      H12A          -23.5476922868       11.3867082393      -10.2682918025  MEMB      126             0.0000000000
     14421       126  CHL1      H12B          -24.0724339009       13.0292198191      -10.7072403842  MEMB      126             0.0000000000
     14422       126  CHL1      C11           -23.1328576335       11.9252620874      -12.2968120457  MEMB      126             0.0000000000
     14423       126  CHL1      H11A          -22.5841575753       10.9674533496      -12.3073147769  MEMB      126             0.0000000000
     14424       126  CHL1      H11B          -24.1635299172       11.7065045865      -12.6457392553  MEMB      126             0.0000000000
     14425       126  CHL1      C9            -22.3957021715       12.9491447503      -13.2307083506  MEMB      126             0.0000000000
     14426       126  CHL1      H9            -23.0668417440       13.8102174142      -13.4135114558  MEMB      126             0.0000000000
     14427       126  CHL1      C10           -22.2100451613       12.4374610641      -14.6543107706  MEMB      126             0.0000000000
     14428       126  CHL1      C19           -21.1574586334       11.3172409900      -14.6304973747  MEMB      126             0.0000000000
     14429       126  CHL1      H19A          -21.2567867457       10.7051351545      -13.7278063510  MEMB      126             0.0000000000
     14430       126  CHL1      H19B          -21.2843510299       10.6682580275      -15.5150916551  MEMB      126             0.0000000000
     14431       126  CHL1      H19C          -20.1112948526       11.6930912698      -14.5978645002  MEMB      126             0.0000000000
     14432       126  CHL1      C1            -23.6259153246       11.9535625769      -15.0922956994  MEMB      126             0.0000000000
     14433       126  CHL1      H1A           -23.7814565089       10.9494231889      -14.6326252551  MEMB      126             0.0000000000
     14434       126  CHL1      H1B           -24.4001297577       12.6413072141      -14.6765200299  MEMB      126             0.0000000000
     14435       126  CHL1      C2            -23.9102851030       11.8065409832      -16.5826073687  MEMB      126             0.0000000000
     14436       126  CHL1      H2A           -25.0106089510       11.9029336134      -16.7389360955  MEMB      126             0.0000000000
     14437       126  CHL1      H2B           -23.6399997221       10.7737127503      -16.8664352438  MEMB      126             0.0000000000
     14438       126  CHL1      C20           -22.1037340793       12.7717956995       -7.6276432973  MEMB      126             0.0000000000
     14439       126  CHL1      H20           -21.4290301157       11.8893963952       -7.6553269455  MEMB      126             0.0000000000
     14440       126  CHL1      C21           -23.5712199413       12.2912454190       -7.4975789550  MEMB      126             0.0000000000
     14441       126  CHL1      H21A          -24.2727964274       13.1498110763       -7.5516251843  MEMB      126             0.0000000000
     14442       126  CHL1      H21B          -23.7330302400       11.7657309577       -6.5351081256  MEMB      126             0.0000000000
     14443       126  CHL1      H21C          -23.8320250078       11.5707591183       -8.2931273485  MEMB      126             0.0000000000
     14444       126  CHL1      C22           -21.6812731907       13.5726067831       -6.3680828314  MEMB      126             0.0000000000
     14445       126  CHL1      H22A          -20.6168754724       13.8786577525       -6.4512347260  MEMB      126             0.0000000000
     14446       126  CHL1      H22B          -22.3007068497       14.4941912369       -6.3141557959  MEMB      126             0.0000000000
     14447       126  CHL1      C23           -21.8094630759       12.7826995922       -5.0525314211  MEMB      126             0.0000000000
     14448       126  CHL1      H23A          -22.8748675325       12.8406736893       -4.7427949369  MEMB      126             0.0000000000
     14449       126  CHL1      H23B          -21.5652754212       11.7130532598       -5.2346381161  MEMB      126             0.0000000000
     14450       126  CHL1      C24           -20.8841971802       13.2985397043       -3.9342642813  MEMB      126             0.0000000000
     14451       126  CHL1      H24A          -19.8262010175       13.1060718084       -4.2184514803  MEMB      126             0.0000000000
     14452       126  CHL1      H24B          -20.9755251232       14.3941520106       -3.8240844429  MEMB      126             0.0000000000
     14453       126  CHL1      C25           -21.1443167278       12.6879753447       -2.5415770990  MEMB      126             0.0000000000
     14454       126  CHL1      H25           -20.7925972415       11.6300186359       -2.5711383577  MEMB      126             0.0000000000
     14455       126  CHL1      C26           -20.3298902364       13.4315258305       -1.4647564111  MEMB      126             0.0000000000
     14456       126  CHL1      H26A          -21.0023119177       13.9515796756       -0.7488199266  MEMB      126             0.0000000000
     14457       126  CHL1      H26B          -19.6990537935       12.7177648292       -0.8942628700  MEMB      126             0.0000000000
     14458       126  CHL1      H26C          -19.6685737171       14.1950168907       -1.9261057845  MEMB      126             0.0000000000
     14459       126  CHL1      C27           -22.6416862998       12.6721090022       -2.1836069723  MEMB      126             0.0000000000
     14460       126  CHL1      H27A          -22.7941963498       12.6784709711       -1.0848115716  MEMB      126             0.0000000000
     14461       126  CHL1      H27B          -23.1481382215       13.5624177621       -2.6004901301  MEMB      126             0.0000000000
     14462       126  CHL1      H27C          -23.1347409010       11.7748787111       -2.6114932604  MEMB      126             0.0000000000
     14463       127  CHL1      C3              9.3843294229      -22.0602359688      -17.7750814555  MEMB      127             0.0000000000
     14464       127  CHL1      H3              9.5406749883      -20.9724480428      -17.5760017691  MEMB      127             0.0000000000
     14465       127  CHL1      O3              9.5263090831      -22.3337506266      -19.1607760552  MEMB      127             0.0000000000
     14466       127  CHL1      H3'            10.4622498584      -22.5773418322      -19.2987076980  MEMB      127             0.0000000000
     14467       127  CHL1      C4             10.4429158351      -22.8904905910      -17.0587053627  MEMB      127             0.0000000000
     14468       127  CHL1      H4A            10.3175150348      -23.9523539073      -17.3704904980  MEMB      127             0.0000000000
     14469       127  CHL1      H4B            11.4410121690      -22.5688778950      -17.4329457162  MEMB      127             0.0000000000
     14470       127  CHL1      C5             10.3447573280      -22.7907604858      -15.5553614149  MEMB      127             0.0000000000
     14471       127  CHL1      C6             11.3869556575      -22.3866030254      -14.8232806808  MEMB      127             0.0000000000
     14472       127  CHL1      H6             12.3359266790      -22.1260310831      -15.3044245307  MEMB      127             0.0000000000
     14473       127  CHL1      C7             11.3983174689      -22.3535717683      -13.3338847589  MEMB      127             0.0000000000
     14474       127  CHL1      H7A            12.3501411604      -22.7601525658      -12.9369525916  MEMB      127             0.0000000000
     14475       127  CHL1      H7B            11.3411840065      -21.3016161196      -13.0249341839  MEMB      127             0.0000000000
     14476       127  CHL1      C8             10.1937859921      -23.0526849109      -12.6717579547  MEMB      127             0.0000000000
     14477       127  CHL1      H8             10.3643840254      -24.1476592901      -12.6809161651  MEMB      127             0.0000000000
     14478       127  CHL1      C14            10.0749299050      -22.5442255081      -11.2398086036  MEMB      127             0.0000000000
     14479       127  CHL1      H14             9.8451861937      -21.4487197877      -11.3303406685  MEMB      127             0.0000000000
     14480       127  CHL1      C15            11.3176203161      -22.5963540408      -10.3472012807  MEMB      127             0.0000000000
     14481       127  CHL1      H15A           11.7687964664      -23.6080133151      -10.3775946124  MEMB      127             0.0000000000
     14482       127  CHL1      H15B           12.0872328252      -21.8521879696      -10.6384139169  MEMB      127             0.0000000000
     14483       127  CHL1      C16            10.7460486495      -22.3337218393       -8.9501428869  MEMB      127             0.0000000000
     14484       127  CHL1      H16A           11.1828143605      -23.0920941523       -8.2690687858  MEMB      127             0.0000000000
     14485       127  CHL1      H16B           11.0079334488      -21.3122265225       -8.5979898107  MEMB      127             0.0000000000
     14486       127  CHL1      C17             9.1923686742      -22.4737114215       -9.0320483322  MEMB      127             0.0000000000
     14487       127  CHL1      H17             8.8101188225      -21.4269583161       -9.1021793189  MEMB      127             0.0000000000
     14488       127  CHL1      C13             8.9275120905      -23.1140776108      -10.4223168960  MEMB      127             0.0000000000
     14489       127  CHL1      C18             9.0045217890      -24.6268904509      -10.2571136176  MEMB      127             0.0000000000
     14490       127  CHL1      H18A            9.1734924907      -25.1533137778      -11.2153153920  MEMB      127             0.0000000000
     14491       127  CHL1      H18B            9.7723235111      -24.9250312213       -9.5135064631  MEMB      127             0.0000000000
     14492       127  CHL1      H18C            8.0165911374      -24.9448636026       -9.8862151308  MEMB      127             0.0000000000
     14493       127  CHL1      C12             7.6452508650      -22.7594705600      -11.1822180437  MEMB      127             0.0000000000
     14494       127  CHL1      H12A            6.7550983565      -23.1639573926      -10.6579585385  MEMB      127             0.0000000000
     14495       127  CHL1      H12B            7.6168171704      -21.6529431803      -11.1920574309  MEMB      127             0.0000000000
     14496       127  CHL1      C11             7.6552363774      -23.2415311792      -12.6560391770  MEMB      127             0.0000000000
     14497       127  CHL1      H11A            7.6243364508      -24.3511021941      -12.6698603145  MEMB      127             0.0000000000
     14498       127  CHL1      H11B            6.7360302332      -22.8670945771      -13.1551599374  MEMB      127             0.0000000000
     14499       127  CHL1      C9              8.9034262495      -22.7430290037      -13.4400409426  MEMB      127             0.0000000000
     14500       127  CHL1      H9              8.8254089892      -21.6274529167      -13.4301844527  MEMB      127             0.0000000000
     14501       127  CHL1      C10             8.9721091926      -23.1327262724      -14.9519014576  MEMB      127             0.0000000000
     14502       127  CHL1      C19             8.7968780687      -24.6592759358      -15.1050377896  MEMB      127             0.0000000000
     14503       127  CHL1      H19A            7.7990504708      -24.9914692852      -14.7594701335  MEMB      127             0.0000000000
     14504       127  CHL1      H19B            8.8910054675      -24.9972095686      -16.1554231253  MEMB      127             0.0000000000
     14505       127  CHL1      H19C            9.5547452475      -25.2141206285      -14.5141953131  MEMB      127             0.0000000000
     14506       127  CHL1      C1              7.8610427448      -22.3805433297      -15.7517437454  MEMB      127             0.0000000000
     14507       127  CHL1      H1A             6.8722026390      -22.7875388945      -15.4466972109  MEMB      127             0.0000000000
     14508       127  CHL1      H1B             7.8818366900      -21.3063956607      -15.4646428943  MEMB      127             0.0000000000
     14509       127  CHL1      C2              7.9827695178      -22.4685798975      -17.2921017384  MEMB      127             0.0000000000
     14510       127  CHL1      H2A             7.2161066761      -21.8209734918      -17.7706900603  MEMB      127             0.0000000000
     14511       127  CHL1      H2B             7.7961268634      -23.5192526901      -17.6031084410  MEMB      127             0.0000000000
     14512       127  CHL1      C20             8.5635242756      -23.0913447798       -7.7530065575  MEMB      127             0.0000000000
     14513       127  CHL1      H20             8.7447237669      -24.1866414965       -7.7096699892  MEMB      127             0.0000000000
     14514       127  CHL1      C21             7.0423382411      -22.8706568861       -7.8436490095  MEMB      127             0.0000000000
     14515       127  CHL1      H21A            6.5576014974      -23.7005663165       -8.4005192369  MEMB      127             0.0000000000
     14516       127  CHL1      H21B            6.8630518504      -21.9374690112       -8.4063476166  MEMB      127             0.0000000000
     14517       127  CHL1      H21C            6.5578805197      -22.7811371007       -6.8509092873  MEMB      127             0.0000000000
     14518       127  CHL1      C22             9.1865624787      -22.4876849534       -6.4513240501  MEMB      127             0.0000000000
     14519       127  CHL1      H22A           10.2817545805      -22.6463047397       -6.4786746778  MEMB      127             0.0000000000
     14520       127  CHL1      H22B            8.9946873983      -21.3955873428       -6.4510116929  MEMB      127             0.0000000000
     14521       127  CHL1      C23             8.7887238991      -23.0862461422       -5.0822059029  MEMB      127             0.0000000000
     14522       127  CHL1      H23A            7.7297181425      -22.8474162520       -4.8578101269  MEMB      127             0.0000000000
     14523       127  CHL1      H23B            8.8875875699      -24.1957102666       -5.1290346249  MEMB      127             0.0000000000
     14524       127  CHL1      C24             9.6891943156      -22.5943453176       -3.9148949739  MEMB      127             0.0000000000
     14525       127  CHL1      H24A            9.3083656058      -23.0031579088       -2.9539886013  MEMB      127             0.0000000000
     14526       127  CHL1      H24B           10.7066860786      -23.0096457136       -4.0428905706  MEMB      127             0.0000000000
     14527       127  CHL1      C25             9.8365169457      -21.0619575692       -3.7686286418  MEMB      127             0.0000000000
     14528       127  CHL1      H25            10.1375091538      -20.6367356189       -4.7566610136  MEMB      127             0.0000000000
     14529       127  CHL1      C26             8.5127060075      -20.4137489392       -3.3420857846  MEMB      127             0.0000000000
     14530       127  CHL1      H26A            7.6998413231      -20.6758410592       -4.0512189777  MEMB      127             0.0000000000
     14531       127  CHL1      H26B            8.2326198614      -20.7636898202       -2.3256942948  MEMB      127             0.0000000000
     14532       127  CHL1      H26C            8.6218679186      -19.3084617430       -3.3203168959  MEMB      127             0.0000000000
     14533       127  CHL1      C27            10.9508111777      -20.6931423702       -2.7718469343  MEMB      127             0.0000000000
     14534       127  CHL1      H27A           10.9125469176      -21.3438346253       -1.8733884112  MEMB      127             0.0000000000
     14535       127  CHL1      H27B           11.9455990613      -20.8019139764       -3.2517659363  MEMB      127             0.0000000000
     14536       127  CHL1      H27C           10.8514380471      -19.6377216174       -2.4449699357  MEMB      127             0.0000000000
     14537       128  POPC      N              -0.1652897058      -26.4584962468      -18.5874213788  MEMB      128             0.0000000000
     14538       128  POPC      C12            -0.0905405053      -25.1837421647      -17.7542810761  MEMB      128             0.0000000000
     14539       128  POPC      H12A            0.5085480585      -25.3725716010      -16.8767064171  MEMB      128             0.0000000000
     14540       128  POPC      H12B           -1.0911484190      -24.9370684299      -17.4078774813  MEMB      128             0.0000000000
     14541       128  POPC      C13            -1.4503256986      -26.4555010742      -19.3550115903  MEMB      128             0.0000000000
     14542       128  POPC      H13A           -1.4340573388      -27.1751871886      -20.1582617369  MEMB      128             0.0000000000
     14543       128  POPC      H13B           -2.2865093345      -26.6367634243      -18.6937628308  MEMB      128             0.0000000000
     14544       128  POPC      H13C           -1.5857684453      -25.4821046898      -19.8301090775  MEMB      128             0.0000000000
     14545       128  POPC      C14             0.9142216147      -26.4726954499      -19.5977427154  MEMB      128             0.0000000000
     14546       128  POPC      H14A            0.7946181432      -25.6135559971      -20.2577191329  MEMB      128             0.0000000000
     14547       128  POPC      H14B            1.8961540170      -26.4321239378      -19.1663809450  MEMB      128             0.0000000000
     14548       128  POPC      H14C            0.8883921334      -27.3658479980      -20.2248001229  MEMB      128             0.0000000000
     14549       128  POPC      C15            -0.0414719796      -27.7029251256      -17.7647084841  MEMB      128             0.0000000000
     14550       128  POPC      H15A            0.8257412179      -27.6451673386      -17.1233062812  MEMB      128             0.0000000000
     14551       128  POPC      H15B            0.0776971293      -28.5428224634      -18.4415535101  MEMB      128             0.0000000000
     14552       128  POPC      H15C           -0.9259660563      -27.8649465400      -17.1537253212  MEMB      128             0.0000000000
     14553       128  POPC      C11             0.4980502434      -23.9045267404      -18.4243630411  MEMB      128             0.0000000000
     14554       128  POPC      H11A            1.5995478773      -24.0225722625      -18.5002322774  MEMB      128             0.0000000000
     14555       128  POPC      H11B            0.3394977918      -23.0361020316      -17.7365423656  MEMB      128             0.0000000000
     14556       128  POPC      P              -1.2510443001      -22.6945894800      -19.9571986853  MEMB      128             0.0000000000
     14557       128  POPC      O13            -2.0397276952      -23.1776840306      -21.1140195725  MEMB      128             0.0000000000
     14558       128  POPC      O14            -0.7504571374      -21.3092299191      -20.0731860211  MEMB      128             0.0000000000
     14559       128  POPC      O12            -0.0185387720      -23.6619370827      -19.7369257136  MEMB      128             0.0000000000
     14560       128  POPC      O11            -2.0061053940      -22.9571368845      -18.5640708366  MEMB      128             0.0000000000
     14561       128  POPC      C1             -3.1937456521      -22.2678359574      -18.1764499225  MEMB      128             0.0000000000
     14562       128  POPC      HA             -3.9376277896      -22.2607886922      -19.0090874623  MEMB      128             0.0000000000
     14563       128  POPC      HB             -2.9571930984      -21.2110736814      -17.9145479957  MEMB      128             0.0000000000
     14564       128  POPC      C2             -3.9047393733      -22.8925338692      -16.9294226084  MEMB      128             0.0000000000
     14565       128  POPC      HS             -4.9650809067      -22.5507636634      -17.0132818021  MEMB      128             0.0000000000
     14566       128  POPC      O21            -3.2811398660      -22.3902013682      -15.7204073269  MEMB      128             0.0000000000
     14567       128  POPC      C21            -4.1391658580      -22.3197205321      -14.7022060485  MEMB      128             0.0000000000
     14568       128  POPC      O22            -5.3512875772      -22.3715081400      -14.7984048154  MEMB      128             0.0000000000
     14569       128  POPC      C22            -3.3738711109      -22.1985444961      -13.3962244030  MEMB      128             0.0000000000
     14570       128  POPC      H2R            -2.5823762285      -21.4297919836      -13.5297029195  MEMB      128             0.0000000000
     14571       128  POPC      H2S            -2.8871097660      -23.1737433978      -13.1889744174  MEMB      128             0.0000000000
     14572       128  POPC      C3             -3.8944470957      -24.4643619776      -16.9173809616  MEMB      128             0.0000000000
     14573       128  POPC      HX             -3.1645167743      -24.7939637916      -17.6860189634  MEMB      128             0.0000000000
     14574       128  POPC      HY             -4.9010704540      -24.8158950856      -17.2376104981  MEMB      128             0.0000000000
     14575       128  POPC      O31            -3.5758121774      -24.9895317815      -15.6034504851  MEMB      128             0.0000000000
     14576       128  POPC      C31            -2.8688405343      -26.1112005629      -15.5303704524  MEMB      128             0.0000000000
     14577       128  POPC      O32            -2.6619208887      -26.8755581705      -16.4583020557  MEMB      128             0.0000000000
     14578       128  POPC      C32            -2.2095542496      -26.2444441931      -14.1449115677  MEMB      128             0.0000000000
     14579       128  POPC      H2X            -1.4198064295      -25.4640620638      -14.1015576394  MEMB      128             0.0000000000
     14580       128  POPC      H2Y            -1.7157644190      -27.2373354235      -14.0975669640  MEMB      128             0.0000000000
     14581       128  POPC      C23            -4.3252262305      -21.8176991029      -12.2399734171  MEMB      128             0.0000000000
     14582       128  POPC      H3R            -4.9340487798      -22.6991556982      -11.9260105000  MEMB      128             0.0000000000
     14583       128  POPC      H3S            -5.0437245378      -21.0301323816      -12.5760723133  MEMB      128             0.0000000000
     14584       128  POPC      C24            -3.5415734300      -21.2578386848      -11.0497872641  MEMB      128             0.0000000000
     14585       128  POPC      H4R            -4.0042062382      -20.3013864139      -10.7228121321  MEMB      128             0.0000000000
     14586       128  POPC      H4S            -2.4975993898      -21.0428215204      -11.3727879779  MEMB      128             0.0000000000
     14587       128  POPC      C25            -3.5189607403      -22.2186990579       -9.8635924530  MEMB      128             0.0000000000
     14588       128  POPC      H5R            -3.1772017279      -23.2160276502      -10.2169224305  MEMB      128             0.0000000000
     14589       128  POPC      H5S            -4.5583701001      -22.3285705907       -9.4726783315  MEMB      128             0.0000000000
     14590       128  POPC      C26            -2.5950874355      -21.7687778734       -8.7265528788  MEMB      128             0.0000000000
     14591       128  POPC      H6R            -2.9415767969      -20.7849905804       -8.3402744587  MEMB      128             0.0000000000
     14592       128  POPC      H6S            -1.5510019514      -21.6485818464       -9.0958651456  MEMB      128             0.0000000000
     14593       128  POPC      C27            -2.6124891836      -22.8050257770       -7.6029556071  MEMB      128             0.0000000000
     14594       128  POPC      H7R            -1.9189664445      -23.6381902000       -7.8486014272  MEMB      128             0.0000000000
     14595       128  POPC      H7S            -3.6382850813      -23.2448438848       -7.5569449378  MEMB      128             0.0000000000
     14596       128  POPC      C28            -2.3103872580      -22.2547661942       -6.2004543442  MEMB      128             0.0000000000
     14597       128  POPC      H8R            -2.3913440438      -23.1376533653       -5.5437214778  MEMB      128             0.0000000000
     14598       128  POPC      H8S            -3.1349642167      -21.5658552359       -5.9080894654  MEMB      128             0.0000000000
     14599       128  POPC      C29            -0.9847358785      -21.5849937397       -5.9649630053  MEMB      128             0.0000000000
     14600       128  POPC      H91            -0.9586982755      -20.5269959903       -6.2692896236  MEMB      128             0.0000000000
     14601       128  POPC      C210            0.1033497519      -22.1083280374       -5.3589571532  MEMB      128             0.0000000000
     14602       128  POPC      H101            0.9570756809      -21.4469335203       -5.1638056803  MEMB      128             0.0000000000
     14603       128  POPC      C211            0.2863761557      -23.4827858489       -4.7621665541  MEMB      128             0.0000000000
     14604       128  POPC      H11R            1.1075952960      -24.0156270466       -5.2904869547  MEMB      128             0.0000000000
     14605       128  POPC      H11S           -0.6309653590      -24.1014691928       -4.8592961313  MEMB      128             0.0000000000
     14606       128  POPC      C212            0.6379457211      -23.4113774186       -3.2631186513  MEMB      128             0.0000000000
     14607       128  POPC      H12R            1.6313893895      -22.9297445876       -3.1330463038  MEMB      128             0.0000000000
     14608       128  POPC      H12S            0.7120967647      -24.4423499357       -2.8482202103  MEMB      128             0.0000000000
     14609       128  POPC      C213           -0.4270730710      -22.6328455296       -2.4871873043  MEMB      128             0.0000000000
     14610       128  POPC      H13R           -1.3889757551      -23.1765930730       -2.5758849390  MEMB      128             0.0000000000
     14611       128  POPC      H13S           -0.5621029311      -21.6212754788       -2.9329638949  MEMB      128             0.0000000000
     14612       128  POPC      C214           -0.1460407856      -22.4240809154       -1.0054545873  MEMB      128             0.0000000000
     14613       128  POPC      H14R            0.9345637286      -22.2875152361       -0.8081014806  MEMB      128             0.0000000000
     14614       128  POPC      H14S           -0.4711111343      -23.3497300596       -0.4728417658  MEMB      128             0.0000000000
     14615       128  POPC      C215           -0.9695522391      -21.2377922971       -0.4786540414  MEMB      128             0.0000000000
     14616       128  POPC      H15R           -1.2056855841      -21.4789439429        0.5708972074  MEMB      128             0.0000000000
     14617       128  POPC      H15S           -1.9403926443      -21.2101633300       -1.0267594961  MEMB      128             0.0000000000
     14618       128  POPC      C216           -0.3164695608      -19.8355077948       -0.5091845646  MEMB      128             0.0000000000
     14619       128  POPC      H16R           -1.0705245183      -19.0797757213       -0.1875624864  MEMB      128             0.0000000000
     14620       128  POPC      H16S           -0.0444705762      -19.5794741787       -1.5555259642  MEMB      128             0.0000000000
     14621       128  POPC      C217            0.8865863714      -19.6796451326        0.4411221609  MEMB      128             0.0000000000
     14622       128  POPC      H17R            1.3555503643      -18.6788427275        0.3001293420  MEMB      128             0.0000000000
     14623       128  POPC      H17S            1.6561314294      -20.4375960309        0.1816487657  MEMB      128             0.0000000000
     14624       128  POPC      C218            0.5263179348      -19.8468193917        1.9177610236  MEMB      128             0.0000000000
     14625       128  POPC      H18R           -0.1013749406      -20.7478363702        2.0487659123  MEMB      128             0.0000000000
     14626       128  POPC      H18S           -0.0475971130      -18.9793102767        2.2993953759  MEMB      128             0.0000000000
     14627       128  POPC      H18T            1.4380602561      -19.9935494682        2.5361599687  MEMB      128             0.0000000000
     14628       128  POPC      C33            -3.1548778219      -26.0605363586      -12.9311105202  MEMB      128             0.0000000000
     14629       128  POPC      H3X            -3.6833304144      -27.0125146680      -12.7036479377  MEMB      128             0.0000000000
     14630       128  POPC      H3Y            -3.9350174885      -25.3015072891      -13.1759781792  MEMB      128             0.0000000000
     14631       128  POPC      C34            -2.4380813280      -25.5490695839      -11.6632016014  MEMB      128             0.0000000000
     14632       128  POPC      H4X            -3.2236618548      -25.2117451294      -10.9495218970  MEMB      128             0.0000000000
     14633       128  POPC      H4Y            -1.8099297243      -24.6650920811      -11.9128631068  MEMB      128             0.0000000000
     14634       128  POPC      C35            -1.5751499348      -26.5921084407      -10.9375062071  MEMB      128             0.0000000000
     14635       128  POPC      H5X            -0.7825125240      -26.9645468169      -11.6224405638  MEMB      128             0.0000000000
     14636       128  POPC      H5Y            -2.2172805885      -27.4583795186      -10.6609929631  MEMB      128             0.0000000000
     14637       128  POPC      C36            -0.9087631521      -26.0545235168       -9.6562949108  MEMB      128             0.0000000000
     14638       128  POPC      H6X            -1.6923615442      -25.6884071175       -8.9570120277  MEMB      128             0.0000000000
     14639       128  POPC      H6Y            -0.2559341796      -25.1886172733       -9.9080534319  MEMB      128             0.0000000000
     14640       128  POPC      C37            -0.0720996243      -27.1440371820       -8.9659999932  MEMB      128             0.0000000000
     14641       128  POPC      H7X             0.6898868003      -27.4997837062       -9.6972056391  MEMB      128             0.0000000000
     14642       128  POPC      H7Y            -0.7293751961      -28.0098525190       -8.7295924380  MEMB      128             0.0000000000
     14643       128  POPC      C38             0.6607547364      -26.6964650086       -7.6902792975  MEMB      128             0.0000000000
     14644       128  POPC      H8X             1.3257167780      -25.8375032265       -7.9389540474  MEMB      128             0.0000000000
     14645       128  POPC      H8Y             1.3170678354      -27.5323327833       -7.3556115913  MEMB      128             0.0000000000
     14646       128  POPC      C39            -0.2425081747      -26.2941617412       -6.5076586117  MEMB      128             0.0000000000
     14647       128  POPC      H9X            -0.7703873314      -25.3475054717       -6.7531075964  MEMB      128             0.0000000000
     14648       128  POPC      H9Y             0.4305968375      -26.0932838344       -5.6422948363  MEMB      128             0.0000000000
     14649       128  POPC      C310           -1.2688404469      -27.3543873010       -6.0692790614  MEMB      128             0.0000000000
     14650       128  POPC      H10X           -0.7226205829      -28.3236919956       -5.9879338977  MEMB      128             0.0000000000
     14651       128  POPC      H10Y           -2.0523093502      -27.4743792234       -6.8462822016  MEMB      128             0.0000000000
     14652       128  POPC      C311           -1.9161793924      -27.0709691842       -4.6963111713  MEMB      128             0.0000000000
     14653       128  POPC      H11X           -1.1017239935      -26.8024405558       -3.9849527663  MEMB      128             0.0000000000
     14654       128  POPC      H11Y           -2.3842795126      -28.0096678451       -4.3222111378  MEMB      128             0.0000000000
     14655       128  POPC      C312           -2.9926885572      -25.9616589115       -4.6508257839  MEMB      128             0.0000000000
     14656       128  POPC      H12X           -3.9261785788      -26.3127641504       -5.1383773225  MEMB      128             0.0000000000
     14657       128  POPC      H12Y           -2.6218909856      -25.0911254271       -5.2229863774  MEMB      128             0.0000000000
     14658       128  POPC      C313           -3.2651047486      -25.5458937274       -3.1928483747  MEMB      128             0.0000000000
     14659       128  POPC      H13X           -2.2921497952      -25.2290655986       -2.7519318363  MEMB      128             0.0000000000
     14660       128  POPC      H13Y           -3.5934306299      -26.4537135294       -2.6340045405  MEMB      128             0.0000000000
     14661       128  POPC      C314           -4.2908171343      -24.4273097971       -2.8928689389  MEMB      128             0.0000000000
     14662       128  POPC      H14X           -4.1221341371      -24.2433941521       -1.8119753312  MEMB      128             0.0000000000
     14663       128  POPC      H14Y           -5.3361761063      -24.7740096743       -3.0389087125  MEMB      128             0.0000000000
     14664       128  POPC      C315           -4.0890732610      -23.0506439200       -3.5443973029  MEMB      128             0.0000000000
     14665       128  POPC      H15X           -4.5530168463      -23.0421802064       -4.5538319334  MEMB      128             0.0000000000
     14666       128  POPC      H15Y           -3.0008207671      -22.8997261663       -3.6703831941  MEMB      128             0.0000000000
     14667       128  POPC      C316           -4.5924056696      -21.8494282040       -2.7265343063  MEMB      128             0.0000000000
     14668       128  POPC      H16X           -4.2853336805      -20.8994776085       -3.2174328941  MEMB      128             0.0000000000
     14669       128  POPC      H16Y           -4.1398129335      -21.8571013499       -1.7110037083  MEMB      128             0.0000000000
     14670       128  POPC      H16Z           -5.6978270701      -21.8563426189       -2.6271915412  MEMB      128             0.0000000000
     14671       129  SAPS      N             -24.4645229263        3.2772811155      -20.5297791065  MEMB      129             0.0000000000
     14672       129  SAPS      HN1           -23.9491804637        2.3951897935      -20.7096523948  MEMB      129             0.0000000000
     14673       129  SAPS      HN2           -24.5989359493        3.4567113959      -19.5134252651  MEMB      129             0.0000000000
     14674       129  SAPS      HN3           -25.3727095999        3.2204800759      -21.0228142420  MEMB      129             0.0000000000
     14675       129  SAPS      C12           -23.7450810230        4.4162022229      -21.1905803889  MEMB      129             0.0000000000
     14676       129  SAPS      H12A          -22.7981739991        4.5711945033      -20.6982717427  MEMB      129             0.0000000000
     14677       129  SAPS      C13           -23.5303359298        4.1684788084      -22.7037754159  MEMB      129             0.0000000000
     14678       129  SAPS      O13A          -24.4957220813        3.5710141260      -23.2626443230  MEMB      129             0.0000000000
     14679       129  SAPS      O13B          -22.8332987992        5.0420361132      -23.2932274068  MEMB      129             0.0000000000
     14680       129  SAPS      C11           -24.6043801656        5.7165514360      -21.1690568037  MEMB      129             0.0000000000
     14681       129  SAPS      H11A          -25.3387899664        5.7110953629      -22.0020473389  MEMB      129             0.0000000000
     14682       129  SAPS      H11B          -23.9221728288        6.5784327962      -21.3862612578  MEMB      129             0.0000000000
     14683       129  SAPS      P             -24.7975010504        6.8009685038      -18.8182511274  MEMB      129             0.0000000000
     14684       129  SAPS      O13           -24.5083911885        8.1441928568      -19.3772564937  MEMB      129             0.0000000000
     14685       129  SAPS      O14           -25.7372414289        6.7054437258      -17.6977021662  MEMB      129             0.0000000000
     14686       129  SAPS      O12           -25.3469545678        5.8663328893      -19.9661360277  MEMB      129             0.0000000000
     14687       129  SAPS      O11           -23.4550600561        6.0424174084      -18.4462587649  MEMB      129             0.0000000000
     14688       129  SAPS      C1            -22.2084903936        6.7274653604      -18.3107464187  MEMB      129             0.0000000000
     14689       129  SAPS      HA            -21.3925047758        6.0381226330      -18.6304739525  MEMB      129             0.0000000000
     14690       129  SAPS      HB            -22.1255084057        7.6049900614      -18.9877050152  MEMB      129             0.0000000000
     14691       129  SAPS      C2            -21.8622130833        7.1428707734      -16.8448663766  MEMB      129             0.0000000000
     14692       129  SAPS      HS            -20.7906110497        7.4606242692      -16.8484549858  MEMB      129             0.0000000000
     14693       129  SAPS      O21           -22.0374942974        6.1243546996      -15.8843330364  MEMB      129             0.0000000000
     14694       129  SAPS      C21           -21.5457034786        4.9483263166      -15.9302685321  MEMB      129             0.0000000000
     14695       129  SAPS      O22           -21.0374237554        4.3376623207      -16.8570178884  MEMB      129             0.0000000000
     14696       129  SAPS      C22           -21.6567934606        4.4959839844      -14.4726121328  MEMB      129             0.0000000000
     14697       129  SAPS      H2R           -20.9103336074        3.7231348731      -14.2556305410  MEMB      129             0.0000000000
     14698       129  SAPS      H2S           -21.4242304844        5.3564586620      -13.8059509920  MEMB      129             0.0000000000
     14699       129  SAPS      C3            -22.6268025991        8.3343716310      -16.2218250196  MEMB      129             0.0000000000
     14700       129  SAPS      HX            -23.7235963868        8.1337727769      -16.2003391354  MEMB      129             0.0000000000
     14701       129  SAPS      HY            -22.4241825220        9.2084829650      -16.8685237249  MEMB      129             0.0000000000
     14702       129  SAPS      O31           -22.0684923141        8.5753180359      -14.9089476585  MEMB      129             0.0000000000
     14703       129  SAPS      C31           -22.7872762486        8.3386113915      -13.8263967915  MEMB      129             0.0000000000
     14704       129  SAPS      O32           -23.9989914559        8.2839633761      -13.7570934430  MEMB      129             0.0000000000
     14705       129  SAPS      C32           -21.7957615721        8.1962733871      -12.6464890799  MEMB      129             0.0000000000
     14706       129  SAPS      H2X           -21.3693687319        9.1993731217      -12.4560817717  MEMB      129             0.0000000000
     14707       129  SAPS      H2Y           -20.9582938231        7.5451326732      -12.9746871859  MEMB      129             0.0000000000
     14708       129  SAPS      C23           -23.1083322481        4.0411916485      -14.2712404619  MEMB      129             0.0000000000
     14709       129  SAPS      H3R           -23.3580234139        3.3219000234      -15.0853926250  MEMB      129             0.0000000000
     14710       129  SAPS      H3S           -23.7826835317        4.9170250009      -14.4072752037  MEMB      129             0.0000000000
     14711       129  SAPS      C24           -23.3929429442        3.3212013553      -12.9459373025  MEMB      129             0.0000000000
     14712       129  SAPS      H4R           -22.6080794240        2.5488206931      -12.7896703156  MEMB      129             0.0000000000
     14713       129  SAPS      H4S           -24.3578670241        2.7806987375      -13.0779058306  MEMB      129             0.0000000000
     14714       129  SAPS      C25           -23.5043774689        4.2196944493      -11.7480345672  MEMB      129             0.0000000000
     14715       129  SAPS      H5R           -22.7846393082        4.0252488745      -10.9370964899  MEMB      129             0.0000000000
     14716       129  SAPS      C26           -24.4258135408        5.1816108991      -11.5739972738  MEMB      129             0.0000000000
     14717       129  SAPS      H6R           -24.3605024637        5.7792121754      -10.6541271162  MEMB      129             0.0000000000
     14718       129  SAPS      C27           -25.5467120584        5.5915604462      -12.5063837609  MEMB      129             0.0000000000
     14719       129  SAPS      H7R           -26.0573924083        4.6959231092      -12.9282235330  MEMB      129             0.0000000000
     14720       129  SAPS      H7S           -25.1293278841        6.1276276843      -13.3851265314  MEMB      129             0.0000000000
     14721       129  SAPS      C28           -26.5501251683        6.5064585865      -11.8399382823  MEMB      129             0.0000000000
     14722       129  SAPS      H8R           -26.4894968243        7.5647512466      -12.1469064506  MEMB      129             0.0000000000
     14723       129  SAPS      C29           -27.4854941823        6.1215946542      -10.9491040025  MEMB      129             0.0000000000
     14724       129  SAPS      H9R           -28.1431021039        6.8808711465      -10.4975112245  MEMB      129             0.0000000000
     14725       129  SAPS      C210          -27.6798058665        4.6978659458      -10.4741075594  MEMB      129             0.0000000000
     14726       129  SAPS      H10R          -26.7845935408        4.0797983699      -10.7080576273  MEMB      129             0.0000000000
     14727       129  SAPS      H10S          -28.4974183665        4.2471848432      -11.0779660661  MEMB      129             0.0000000000
     14728       129  SAPS      C211          -28.0145807331        4.5106525379       -9.0143833560  MEMB      129             0.0000000000
     14729       129  SAPS      H11R          -29.0208941933        4.1068956453       -8.8248210303  MEMB      129             0.0000000000
     14730       129  SAPS      C212          -27.2196026743        4.7569652315       -7.9549276196  MEMB      129             0.0000000000
     14731       129  SAPS      H12R          -27.6102788045        4.5372836512       -6.9517393684  MEMB      129             0.0000000000
     14732       129  SAPS      C213          -25.8023678020        5.2803780866       -7.9729302516  MEMB      129             0.0000000000
     14733       129  SAPS      H13R          -25.4136218658        5.2761379358       -9.0096961867  MEMB      129             0.0000000000
     14734       129  SAPS      H13S          -25.1418528432        4.5745491270       -7.4214647957  MEMB      129             0.0000000000
     14735       129  SAPS      C214          -25.6283550586        6.6708513929       -7.4046657135  MEMB      129             0.0000000000
     14736       129  SAPS      H14R          -25.3037835223        7.4298580947       -8.1366775737  MEMB      129             0.0000000000
     14737       129  SAPS      C215          -25.8527228805        7.0459455088       -6.1284357100  MEMB      129             0.0000000000
     14738       129  SAPS      H15R          -25.6919341015        8.0946681648       -5.8369764914  MEMB      129             0.0000000000
     14739       129  SAPS      C216          -26.3230455993        6.1284332832       -5.0289650338  MEMB      129             0.0000000000
     14740       129  SAPS      H16R          -25.8879187926        5.1123650773       -5.1526321883  MEMB      129             0.0000000000
     14741       129  SAPS      H16S          -27.4291825196        6.0173513078       -5.0981858722  MEMB      129             0.0000000000
     14742       129  SAPS      C217          -26.0065631790        6.6159334443       -3.6012415762  MEMB      129             0.0000000000
     14743       129  SAPS      H17R          -24.9183875944        6.8035816062       -3.4735636452  MEMB      129             0.0000000000
     14744       129  SAPS      H17S          -26.2694728862        5.7919661689       -2.9007389041  MEMB      129             0.0000000000
     14745       129  SAPS      C218          -26.8247852965        7.8595647461       -3.2235015761  MEMB      129             0.0000000000
     14746       129  SAPS      H18R          -27.8036017497        7.8000236198       -3.7523679218  MEMB      129             0.0000000000
     14747       129  SAPS      H18S          -26.2972206505        8.7643709454       -3.5988493772  MEMB      129             0.0000000000
     14748       129  SAPS      C219          -27.1185300122        8.0085276788       -1.7228194476  MEMB      129             0.0000000000
     14749       129  SAPS      H19R          -27.8751951885        7.2473239844       -1.4241167346  MEMB      129             0.0000000000
     14750       129  SAPS      H19S          -27.5781871644        9.0088612301       -1.5514975221  MEMB      129             0.0000000000
     14751       129  SAPS      C220          -25.8956289104        7.8646367317       -0.8214335034  MEMB      129             0.0000000000
     14752       129  SAPS      H20R          -26.1587574870        8.0867177505        0.2344391539  MEMB      129             0.0000000000
     14753       129  SAPS      H20S          -25.0920949528        8.5655694043       -1.1371437274  MEMB      129             0.0000000000
     14754       129  SAPS      H20T          -25.4979139724        6.8291170790       -0.8708193427  MEMB      129             0.0000000000
     14755       129  SAPS      C33           -22.3710922367        7.6765163048      -11.3039423318  MEMB      129             0.0000000000
     14756       129  SAPS      H3X           -21.9716300874        6.6551258190      -11.1080906172  MEMB      129             0.0000000000
     14757       129  SAPS      H3Y           -23.4815606698        7.6279391025      -11.3349551194  MEMB      129             0.0000000000
     14758       129  SAPS      C34           -21.9838734779        8.5783454453      -10.1303496931  MEMB      129             0.0000000000
     14759       129  SAPS      H4X           -22.6221759915        9.4875423014      -10.1552632165  MEMB      129             0.0000000000
     14760       129  SAPS      H4Y           -20.9221442460        8.8921499664      -10.2537422417  MEMB      129             0.0000000000
     14761       129  SAPS      C35           -22.0990611548        7.9381990660       -8.7470548008  MEMB      129             0.0000000000
     14762       129  SAPS      H5X           -21.5068865844        6.9960715013       -8.7245417247  MEMB      129             0.0000000000
     14763       129  SAPS      H5Y           -23.1564531129        7.6835496067       -8.5172856339  MEMB      129             0.0000000000
     14764       129  SAPS      C36           -21.5640140913        8.8958077840       -7.6764185082  MEMB      129             0.0000000000
     14765       129  SAPS      H6X           -22.0608495449        9.8816186344       -7.8020036646  MEMB      129             0.0000000000
     14766       129  SAPS      H6Y           -20.4711224479        9.0424683565       -7.8313986857  MEMB      129             0.0000000000
     14767       129  SAPS      C37           -21.8130841237        8.4197517937       -6.2511087813  MEMB      129             0.0000000000
     14768       129  SAPS      H7X           -22.8960676832        8.5288849646       -6.0108579040  MEMB      129             0.0000000000
     14769       129  SAPS      H7Y           -21.2555071713        9.0749705912       -5.5424303063  MEMB      129             0.0000000000
     14770       129  SAPS      C38           -21.4099870120        6.9619630580       -6.0206764921  MEMB      129             0.0000000000
     14771       129  SAPS      H8X           -20.3365064049        6.8138370876       -6.2734620267  MEMB      129             0.0000000000
     14772       129  SAPS      H8Y           -22.0221816696        6.2815011390       -6.6523375589  MEMB      129             0.0000000000
     14773       129  SAPS      C39           -21.6497714949        6.6228591833       -4.5619435965  MEMB      129             0.0000000000
     14774       129  SAPS      H9X           -22.7207802919        6.8207034136       -4.3220756384  MEMB      129             0.0000000000
     14775       129  SAPS      H9Y           -21.0304947606        7.3323927471       -3.9678259268  MEMB      129             0.0000000000
     14776       129  SAPS      C310          -21.3324307529        5.1801093887       -4.1714035836  MEMB      129             0.0000000000
     14777       129  SAPS      H10X          -20.2329882491        5.0080216791       -4.2394175025  MEMB      129             0.0000000000
     14778       129  SAPS      H10Y          -21.8353865126        4.4691198382       -4.8630175243  MEMB      129             0.0000000000
     14779       129  SAPS      C311          -21.8168768358        4.9315495150       -2.7426039444  MEMB      129             0.0000000000
     14780       129  SAPS      H11X          -21.5371891253        3.9066990567       -2.4195156955  MEMB      129             0.0000000000
     14781       129  SAPS      H11Y          -22.9272279629        5.0016286612       -2.7060790410  MEMB      129             0.0000000000
     14782       129  SAPS      C312          -21.2215220185        5.9630803641       -1.7835113231  MEMB      129             0.0000000000
     14783       129  SAPS      H12X          -21.5286914466        7.0040552263       -2.0275736886  MEMB      129             0.0000000000
     14784       129  SAPS      H12Y          -20.1096301621        5.9085400473       -1.8760129999  MEMB      129             0.0000000000
     14785       129  SAPS      C313          -21.5991208796        5.7144840649       -0.3363381298  MEMB      129             0.0000000000
     14786       129  SAPS      H13X          -20.7711504492        6.1780846229        0.2375255760  MEMB      129             0.0000000000
     14787       129  SAPS      H13Y          -21.6114666159        4.6310666246       -0.1028967707  MEMB      129             0.0000000000
     14788       129  SAPS      C314          -22.8713112807        6.4210626183        0.1370941040  MEMB      129             0.0000000000
     14789       129  SAPS      H14X          -23.7406691175        5.7327481503        0.0618800422  MEMB      129             0.0000000000
     14790       129  SAPS      H14Y          -23.0879309209        7.3098074487       -0.4980088470  MEMB      129             0.0000000000
     14791       129  SAPS      C315          -22.6379331314        6.8750245441        1.5820673185  MEMB      129             0.0000000000
     14792       129  SAPS      H15X          -21.8414059195        7.6487438205        1.5894885207  MEMB      129             0.0000000000
     14793       129  SAPS      H15Y          -22.2443038703        6.0035064653        2.1498915770  MEMB      129             0.0000000000
     14794       129  SAPS      C316          -23.8683823626        7.4045985049        2.3091741031  MEMB      129             0.0000000000
     14795       129  SAPS      H16X          -23.7498391883        7.1975827072        3.3987721298  MEMB      129             0.0000000000
     14796       129  SAPS      H16Y          -24.7587397620        6.8661411384        1.9362347932  MEMB      129             0.0000000000
     14797       129  SAPS      C317          -24.0283369101        8.9104317200        2.1383719759  MEMB      129             0.0000000000
     14798       129  SAPS      H17X          -24.0925460868        9.1458675883        1.0519912379  MEMB      129             0.0000000000
     14799       129  SAPS      H17Y          -23.1149299693        9.3733343728        2.5566224586  MEMB      129             0.0000000000
     14800       129  SAPS      C318          -25.2412453294        9.5010507602        2.8332610611  MEMB      129             0.0000000000
     14801       129  SAPS      H18X          -25.2227803806        9.3044280879        3.9258300701  MEMB      129             0.0000000000
     14802       129  SAPS      H18Y          -26.1210526583        9.0111563499        2.3927096518  MEMB      129             0.0000000000
     14803       129  SAPS      H18Z          -25.3282908361       10.5940833223        2.6558056099  MEMB      129             0.0000000000
     14804       130  OSM       N             -21.1291506912      -16.2045233065      -22.0274155545  MEMB      130             0.0000000000
     14805       130  OSM       C15           -21.6870624650      -17.5968502200      -22.1129362475  MEMB      130             0.0000000000
     14806       130  OSM       H15A          -22.6560143470      -17.7079241339      -21.6510984432  MEMB      130             0.0000000000
     14807       130  OSM       H15B          -21.0218098386      -18.3253437556      -21.6493378712  MEMB      130             0.0000000000
     14808       130  OSM       H15C          -21.7761003047      -17.8852985535      -23.1601527729  MEMB      130             0.0000000000
     14809       130  OSM       C14           -19.8092626311      -16.2062552762      -22.7276561111  MEMB      130             0.0000000000
     14810       130  OSM       H14A          -19.9173773024      -16.2982056309      -23.7961765723  MEMB      130             0.0000000000
     14811       130  OSM       H14B          -19.1659516446      -17.0020221940      -22.3826653514  MEMB      130             0.0000000000
     14812       130  OSM       H14C          -19.3147021214      -15.2453221089      -22.5760904466  MEMB      130             0.0000000000
     14813       130  OSM       C13           -22.0054083887      -15.2266077840      -22.7442232086  MEMB      130             0.0000000000
     14814       130  OSM       H13A          -23.0069780660      -15.1545092225      -22.3451061927  MEMB      130             0.0000000000
     14815       130  OSM       H13B          -22.0686982968      -15.4650544637      -23.7979324202  MEMB      130             0.0000000000
     14816       130  OSM       H13C          -21.5601943536      -14.2376444796      -22.6525659300  MEMB      130             0.0000000000
     14817       130  OSM       C12           -20.9239957630      -15.7714866288      -20.5910643052  MEMB      130             0.0000000000
     14818       130  OSM       H12A          -20.1699394628      -16.4236080043      -20.1656878638  MEMB      130             0.0000000000
     14819       130  OSM       H12B          -21.8378289327      -15.9517921525      -20.0431212734  MEMB      130             0.0000000000
     14820       130  OSM       C11           -20.4521448285      -14.3117512334      -20.3221914377  MEMB      130             0.0000000000
     14821       130  OSM       H11A          -20.2463881142      -14.1984553086      -19.2290476559  MEMB      130             0.0000000000
     14822       130  OSM       H11B          -21.2837380962      -13.6015966321      -20.5436906029  MEMB      130             0.0000000000
     14823       130  OSM       P             -17.8528788119      -14.3522267044      -20.5663382686  MEMB      130             0.0000000000
     14824       130  OSM       O13           -16.9307012670      -14.4994667889      -21.7123863195  MEMB      130             0.0000000000
     14825       130  OSM       O14           -17.4611449525      -13.4169645078      -19.5066801366  MEMB      130             0.0000000000
     14826       130  OSM       O11           -18.0201719235      -15.7910338476      -19.9049328757  MEMB      130             0.0000000000
     14827       130  OSM       O12           -19.3067238794      -13.9554701781      -21.1002353889  MEMB      130             0.0000000000
     14828       130  OSM       C1S           -16.9824544675      -16.1937231860      -18.9709646514  MEMB      130             0.0000000000
     14829       130  OSM       H1S           -16.1035149599      -15.5007133151      -18.9366497840  MEMB      130             0.0000000000
     14830       130  OSM       H1T           -16.5935082747      -17.1865281894      -19.2788958608  MEMB      130             0.0000000000
     14831       130  OSM       NF            -16.4100174329      -16.5463072146      -16.5551427395  MEMB      130             0.0000000000
     14832       130  OSM       HNF           -16.1923483111      -17.4849711285      -16.3157289419  MEMB      130             0.0000000000
     14833       130  OSM       C2S           -17.5058832788      -16.3209878177      -17.5022864088  MEMB      130             0.0000000000
     14834       130  OSM       H2S           -18.0100763220      -15.3585509166      -17.2495535779  MEMB      130             0.0000000000
     14835       130  OSM       C3S           -18.5520106848      -17.4706031164      -17.4199951763  MEMB      130             0.0000000000
     14836       130  OSM       H3S           -18.0063289798      -18.4364626308      -17.3122086154  MEMB      130             0.0000000000
     14837       130  OSM       O3            -19.3414878176      -17.6111396069      -18.5965433944  MEMB      130             0.0000000000
     14838       130  OSM       HO3           -18.9399794837      -16.9352037686      -19.1667297216  MEMB      130             0.0000000000
     14839       130  OSM       C4S           -19.4245775059      -17.2417105582      -16.2074627210  MEMB      130             0.0000000000
     14840       130  OSM       H4S           -20.4856401803      -17.0576293735      -16.4324542542  MEMB      130             0.0000000000
     14841       130  OSM       C5S           -18.9640004496      -17.2604758356      -14.9324090102  MEMB      130             0.0000000000
     14842       130  OSM       H5S           -17.9054408682      -17.5018736904      -14.7753577900  MEMB      130             0.0000000000
     14843       130  OSM       C6S           -19.7088130832      -17.0576457995      -13.6345144458  MEMB      130             0.0000000000
     14844       130  OSM       H6S           -19.6695804480      -18.0548417311      -13.2000165317  MEMB      130             0.0000000000
     14845       130  OSM       H6T           -20.7806262902      -16.8068867191      -13.7921004870  MEMB      130             0.0000000000
     14846       130  OSM       C7S           -19.1212581721      -16.2460902087      -12.4437996977  MEMB      130             0.0000000000
     14847       130  OSM       H7S           -19.1552986379      -15.1667596893      -12.7029931126  MEMB      130             0.0000000000
     14848       130  OSM       H7T           -18.0536138999      -16.5244177157      -12.3136346271  MEMB      130             0.0000000000
     14849       130  OSM       C8S           -19.8524136035      -16.4855279198      -11.0783012464  MEMB      130             0.0000000000
     14850       130  OSM       H8S           -20.8226170790      -16.9959621056      -11.2538362304  MEMB      130             0.0000000000
     14851       130  OSM       H8T           -20.0797469103      -15.4838488986      -10.6461650671  MEMB      130             0.0000000000
     14852       130  OSM       C9S           -19.0343570519      -17.2593072229      -10.0018208363  MEMB      130             0.0000000000
     14853       130  OSM       H9S           -18.2074730700      -16.5805681133       -9.7006801016  MEMB      130             0.0000000000
     14854       130  OSM       H9T           -18.5797316229      -18.1672908877      -10.4517163767  MEMB      130             0.0000000000
     14855       130  OSM       C10S          -19.7471479015      -17.6674565369       -8.6798074911  MEMB      130             0.0000000000
     14856       130  OSM       H10S          -20.1930980317      -18.6791125705       -8.7790028230  MEMB      130             0.0000000000
     14857       130  OSM       H10T          -20.5628341496      -16.9477901814       -8.4553860528  MEMB      130             0.0000000000
     14858       130  OSM       C11S          -18.7837346689      -17.7205630890       -7.4696472390  MEMB      130             0.0000000000
     14859       130  OSM       H11S          -18.4048712566      -16.6905957121       -7.3008077730  MEMB      130             0.0000000000
     14860       130  OSM       H11T          -17.9198029272      -18.3664853704       -7.7376237224  MEMB      130             0.0000000000
     14861       130  OSM       C12S          -19.3700885396      -18.2606400480       -6.1456629750  MEMB      130             0.0000000000
     14862       130  OSM       H12S          -19.3844641025      -19.3702514669       -6.1869744938  MEMB      130             0.0000000000
     14863       130  OSM       H12T          -20.4212805283      -17.9069144071       -6.0476617699  MEMB      130             0.0000000000
     14864       130  OSM       C13S          -18.5992910110      -17.8158157765       -4.8753130347  MEMB      130             0.0000000000
     14865       130  OSM       H13S          -19.0515687906      -18.2797995709       -3.9707789646  MEMB      130             0.0000000000
     14866       130  OSM       H13T          -18.7775733750      -16.7248320975       -4.7924342670  MEMB      130             0.0000000000
     14867       130  OSM       C14S          -17.0799913261      -18.1066107045       -4.9108372674  MEMB      130             0.0000000000
     14868       130  OSM       H14S          -16.6844991373      -17.7330488628       -5.8812374143  MEMB      130             0.0000000000
     14869       130  OSM       H14T          -16.9217316529      -19.2072156148       -4.8886410848  MEMB      130             0.0000000000
     14870       130  OSM       C15S          -16.2021027606      -17.4300625079       -3.8268407583  MEMB      130             0.0000000000
     14871       130  OSM       H15S          -15.1415554170      -17.6747670783       -4.0755609898  MEMB      130             0.0000000000
     14872       130  OSM       H15T          -16.3933906145      -17.8520796946       -2.8218163376  MEMB      130             0.0000000000
     14873       130  OSM       C16S          -16.3166611851      -15.8947401004       -3.8459878473  MEMB      130             0.0000000000
     14874       130  OSM       H16S          -17.3515840737      -15.5773220748       -4.0824866562  MEMB      130             0.0000000000
     14875       130  OSM       H16T          -15.6448339851      -15.5517806443       -4.6517115201  MEMB      130             0.0000000000
     14876       130  OSM       C17S          -15.8694418132      -15.0773412743       -2.6303751993  MEMB      130             0.0000000000
     14877       130  OSM       H17S          -16.6841338589      -15.0440850185       -1.8828388269  MEMB      130             0.0000000000
     14878       130  OSM       H17T          -15.7307257287      -14.0326795483       -3.0012950578  MEMB      130             0.0000000000
     14879       130  OSM       C18S          -14.5849498249      -15.5499713113       -1.9682672659  MEMB      130             0.0000000000
     14880       130  OSM       H18S          -13.8113423141      -15.7756990424       -2.7332760175  MEMB      130             0.0000000000
     14881       130  OSM       H18T          -14.7887877431      -16.4654832626       -1.3730365120  MEMB      130             0.0000000000
     14882       130  OSM       H18U          -14.1948740050      -14.7715062920       -1.2798921663  MEMB      130             0.0000000000
     14883       130  OSM       C1F           -15.7014562638      -15.5393705381      -16.0352207659  MEMB      130             0.0000000000
     14884       130  OSM       OF            -15.8370160868      -14.3847024995      -16.4023452096  MEMB      130             0.0000000000
     14885       130  OSM       C2F           -14.7152643262      -15.8718960772      -14.9705529519  MEMB      130             0.0000000000
     14886       130  OSM       H2F           -14.0045078064      -15.0193729437      -14.8733501728  MEMB      130             0.0000000000
     14887       130  OSM       H2G           -14.1378730224      -16.7749752627      -15.2463449740  MEMB      130             0.0000000000
     14888       130  OSM       C3F           -15.3942674397      -16.0858214193      -13.6058114471  MEMB      130             0.0000000000
     14889       130  OSM       H3F           -16.2155705261      -16.8314424719      -13.6637392040  MEMB      130             0.0000000000
     14890       130  OSM       H3G           -15.8324035815      -15.1207979541      -13.2617488396  MEMB      130             0.0000000000
     14891       130  OSM       C4F           -14.3564216132      -16.5782378054      -12.5993454657  MEMB      130             0.0000000000
     14892       130  OSM       H4F           -13.3512642267      -16.2893351690      -12.9739598647  MEMB      130             0.0000000000
     14893       130  OSM       H4G           -14.3950579929      -17.6894052220      -12.5555062984  MEMB      130             0.0000000000
     14894       130  OSM       C5F           -14.5210190313      -16.0167660828      -11.1916301358  MEMB      130             0.0000000000
     14895       130  OSM       H5F           -14.8950493672      -14.9692303174      -11.2409678919  MEMB      130             0.0000000000
     14896       130  OSM       H5G           -13.5296432945      -15.9879921527      -10.6828219100  MEMB      130             0.0000000000
     14897       130  OSM       C6F           -15.4627596003      -16.9182950943      -10.3959361169  MEMB      130             0.0000000000
     14898       130  OSM       H6F           -15.1883908728      -17.9878059381      -10.5414826610  MEMB      130             0.0000000000
     14899       130  OSM       H6G           -16.4834831006      -16.7781037310      -10.8107540886  MEMB      130             0.0000000000
     14900       130  OSM       C7F           -15.4631417814      -16.6210703547       -8.8960670453  MEMB      130             0.0000000000
     14901       130  OSM       H7F           -14.4817010007      -16.9028301260       -8.4532738905  MEMB      130             0.0000000000
     14902       130  OSM       H7G           -16.2313626236      -17.2731823780       -8.4280975272  MEMB      130             0.0000000000
     14903       130  OSM       C8F           -15.7549954848      -15.1366534850       -8.6271561995  MEMB      130             0.0000000000
     14904       130  OSM       H8F           -16.4851587311      -14.7908837736       -9.3885891687  MEMB      130             0.0000000000
     14905       130  OSM       H8G           -14.8135690698      -14.5658782280       -8.7873893845  MEMB      130             0.0000000000
     14906       130  OSM       C9F           -16.2592802251      -14.8977387434       -7.2361556368  MEMB      130             0.0000000000
     14907       130  OSM       H9F           -15.7119831061      -15.4865086179       -6.4960076509  MEMB      130             0.0000000000
     14908       130  OSM       C10F          -17.3376462301      -14.1773287848       -6.8680692203  MEMB      130             0.0000000000
     14909       130  OSM       H10F          -17.5736789307      -14.0670538982       -5.7969083583  MEMB      130             0.0000000000
     14910       130  OSM       C11F          -18.2664040220      -13.4564148873       -7.8116094288  MEMB      130             0.0000000000
     14911       130  OSM       H11F          -18.2834522063      -13.9649876315       -8.8030880571  MEMB      130             0.0000000000
     14912       130  OSM       H11G          -17.8838537098      -12.4312223994       -8.0065293044  MEMB      130             0.0000000000
     14913       130  OSM       C12F          -19.7491044585      -13.4040275385       -7.3627227011  MEMB      130             0.0000000000
     14914       130  OSM       H12F          -20.2104231476      -14.4060065178       -7.4895643290  MEMB      130             0.0000000000
     14915       130  OSM       H12G          -20.2478535765      -12.7250646118       -8.0921437653  MEMB      130             0.0000000000
     14916       130  OSM       C13F          -20.0323976759      -12.8743740416       -5.9400870155  MEMB      130             0.0000000000
     14917       130  OSM       H13F          -20.8240901443      -12.0934779125       -6.0054503922  MEMB      130             0.0000000000
     14918       130  OSM       H13G          -19.1208330841      -12.3705230445       -5.5549900649  MEMB      130             0.0000000000
     14919       130  OSM       C14F          -20.5001654853      -13.9156938849       -4.8935981608  MEMB      130             0.0000000000
     14920       130  OSM       H14F          -19.7766318769      -14.7572800972       -4.8734880612  MEMB      130             0.0000000000
     14921       130  OSM       H14G          -21.4922126551      -14.3214193101       -5.1909088170  MEMB      130             0.0000000000
     14922       130  OSM       C15F          -20.5923579917      -13.2569889561       -3.4973645174  MEMB      130             0.0000000000
     14923       130  OSM       H15F          -21.4831465699      -12.5961153886       -3.4784657002  MEMB      130             0.0000000000
     14924       130  OSM       H15G          -19.6934594481      -12.6120885045       -3.4066177615  MEMB      130             0.0000000000
     14925       130  OSM       C16F          -20.5826118538      -14.1447086111       -2.2354483281  MEMB      130             0.0000000000
     14926       130  OSM       H16F          -19.8926234542      -15.0041858417       -2.3897889348  MEMB      130             0.0000000000
     14927       130  OSM       H16G          -21.5982571101      -14.5602054306       -2.0452532100  MEMB      130             0.0000000000
     14928       130  OSM       C17F          -20.1119191697      -13.3632349362       -0.9819894506  MEMB      130             0.0000000000
     14929       130  OSM       H17F          -20.4804283148      -13.8844581486       -0.0675952501  MEMB      130             0.0000000000
     14930       130  OSM       H17G          -20.5665237159      -12.3473662012       -0.9691582112  MEMB      130             0.0000000000
     14931       130  OSM       C18F          -18.5867841486      -13.2388884470       -0.8721378328  MEMB      130             0.0000000000
     14932       130  OSM       H18F          -18.1472813482      -14.2446904324       -0.7143910930  MEMB      130             0.0000000000
     14933       130  OSM       H18G          -18.2775972394      -12.6126120852       -0.0122955794  MEMB      130             0.0000000000
     14934       130  OSM       H18H          -18.1521492905      -12.7937059810       -1.7917277050  MEMB      130             0.0000000000
     14935       131  SLPC      N               2.8465477666       26.7103390209      -18.3247148393  MEMB      131             0.0000000000
     14936       131  SLPC      C13             4.1840634327       26.0695445157      -18.5708415252  MEMB      131             0.0000000000
     14937       131  SLPC      H13A            4.9798619156       26.5897294489      -18.0437454968  MEMB      131             0.0000000000
     14938       131  SLPC      H13B            4.1752501574       25.0594602393      -18.1520234184  MEMB      131             0.0000000000
     14939       131  SLPC      H13C            4.4664330053       26.0304681888      -19.6132218920  MEMB      131             0.0000000000
     14940       131  SLPC      C14             1.7952922947       25.9278587904      -19.0661051585  MEMB      131             0.0000000000
     14941       131  SLPC      H14A            2.0708077674       25.8153163011      -20.1111652168  MEMB      131             0.0000000000
     14942       131  SLPC      H14B            1.7037930086       24.9257342214      -18.6442053458  MEMB      131             0.0000000000
     14943       131  SLPC      H14C            0.8181306010       26.4033942802      -19.0337603102  MEMB      131             0.0000000000
     14944       131  SLPC      C15             2.8994662447       28.0876908779      -18.9030393873  MEMB      131             0.0000000000
     14945       131  SLPC      H15A            3.5574562909       28.7478228506      -18.3473482112  MEMB      131             0.0000000000
     14946       131  SLPC      H15B            3.2983768711       28.0364279551      -19.9133101756  MEMB      131             0.0000000000
     14947       131  SLPC      H15C            1.9049848610       28.5093725155      -18.9546427457  MEMB      131             0.0000000000
     14948       131  SLPC      C12             2.5630055567       26.7337281840      -16.8237770448  MEMB      131             0.0000000000
     14949       131  SLPC      H12A            1.6164273679       27.2241840236      -16.6469737011  MEMB      131             0.0000000000
     14950       131  SLPC      H12B            3.3388540944       27.3127636506      -16.3298431869  MEMB      131             0.0000000000
     14951       131  SLPC      C11             2.5246571317       25.3724030885      -16.0815459169  MEMB      131             0.0000000000
     14952       131  SLPC      H11A            1.7014908774       24.7567731046      -16.5236923237  MEMB      131             0.0000000000
     14953       131  SLPC      H11B            2.2599917507       25.5413023244      -15.0123611697  MEMB      131             0.0000000000
     14954       131  SLPC      P               3.9520449268       23.1818744469      -16.3436638746  MEMB      131             0.0000000000
     14955       131  SLPC      O13             2.8691672349       22.7389459015      -17.2544265262  MEMB      131             0.0000000000
     14956       131  SLPC      O14             5.3260365372       22.8681091595      -16.7771802696  MEMB      131             0.0000000000
     14957       131  SLPC      O12             3.8065356465       24.7477696750      -16.1398717060  MEMB      131             0.0000000000
     14958       131  SLPC      O11             3.7261823555       22.6246699498      -14.8897601612  MEMB      131             0.0000000000
     14959       131  SLPC      C1              2.6822396565       21.6730158925      -14.7137002829  MEMB      131             0.0000000000
     14960       131  SLPC      HA              2.7152826862       20.8474123362      -15.4602486015  MEMB      131             0.0000000000
     14961       131  SLPC      HB              2.7569989620       21.2492310082      -13.6933853761  MEMB      131             0.0000000000
     14962       131  SLPC      C2              1.2788203284       22.2569390346      -14.6627742576  MEMB      131             0.0000000000
     14963       131  SLPC      HS              1.0682043892       22.8428290800      -15.5888411722  MEMB      131             0.0000000000
     14964       131  SLPC      O21             1.2326200736       23.0732161353      -13.4809276089  MEMB      131             0.0000000000
     14965       131  SLPC      C21             0.0612700092       23.6055550668      -13.3289271747  MEMB      131             0.0000000000
     14966       131  SLPC      O22            -0.8090931346       23.6799416624      -14.1766358154  MEMB      131             0.0000000000
     14967       131  SLPC      C22            -0.0720897439       24.1879795152      -11.9584420764  MEMB      131             0.0000000000
     14968       131  SLPC      H2R             0.4656485319       25.1590922911      -12.0107398021  MEMB      131             0.0000000000
     14969       131  SLPC      H2S            -1.1683543129       24.3055746805      -11.8096201914  MEMB      131             0.0000000000
     14970       131  SLPC      C3              0.3171476069       21.0424202795      -14.5804907285  MEMB      131             0.0000000000
     14971       131  SLPC      HX              0.5796615035       20.3790731379      -15.4377339880  MEMB      131             0.0000000000
     14972       131  SLPC      HY             -0.7352125714       21.3530620877      -14.7631282726  MEMB      131             0.0000000000
     14973       131  SLPC      O31             0.5248358124       20.3059711393      -13.3431932510  MEMB      131             0.0000000000
     14974       131  SLPC      C31            -0.4064344973       20.5171971818      -12.4158705291  MEMB      131             0.0000000000
     14975       131  SLPC      O32            -1.3697590852       21.2511158227      -12.5240527411  MEMB      131             0.0000000000
     14976       131  SLPC      C32            -0.2842792075       19.5265189071      -11.2592791600  MEMB      131             0.0000000000
     14977       131  SLPC      H2X             0.2761538483       18.6237983293      -11.5498479234  MEMB      131             0.0000000000
     14978       131  SLPC      H2Y            -1.3474632130       19.2387133897      -11.2437022308  MEMB      131             0.0000000000
     14979       131  SLPC      C23             0.3900926946       23.4589683214      -10.6972266286  MEMB      131             0.0000000000
     14980       131  SLPC      H3R             1.3539827794       22.9537834920      -10.8816615434  MEMB      131             0.0000000000
     14981       131  SLPC      H3S            -0.3969505943       22.7147748818      -10.4648724223  MEMB      131             0.0000000000
     14982       131  SLPC      C24             0.3672130176       24.5764123082       -9.6330246532  MEMB      131             0.0000000000
     14983       131  SLPC      H4R            -0.6970287853       24.8524165488       -9.7635239053  MEMB      131             0.0000000000
     14984       131  SLPC      H4S             1.0184555236       25.4235339352       -9.9332109742  MEMB      131             0.0000000000
     14985       131  SLPC      C25             0.4682542705       24.3677516085       -8.1127815924  MEMB      131             0.0000000000
     14986       131  SLPC      H5R             0.0065045587       25.2404217532       -7.5950993810  MEMB      131             0.0000000000
     14987       131  SLPC      H5S             1.5147832152       24.3529870758       -7.7733406748  MEMB      131             0.0000000000
     14988       131  SLPC      C26            -0.2309216692       23.1101095138       -7.6516626452  MEMB      131             0.0000000000
     14989       131  SLPC      H6R             0.0498520834       22.8291700651       -6.6118930018  MEMB      131             0.0000000000
     14990       131  SLPC      H6S             0.0745514333       22.3079192206       -8.3327056541  MEMB      131             0.0000000000
     14991       131  SLPC      C27            -1.7205256599       23.1994236672       -7.8084852619  MEMB      131             0.0000000000
     14992       131  SLPC      H7R            -2.0998362085       22.2236015380       -8.1897391957  MEMB      131             0.0000000000
     14993       131  SLPC      H7S            -2.0206648889       23.9700736896       -8.5471064025  MEMB      131             0.0000000000
     14994       131  SLPC      C28            -2.4146373148       23.4779094269       -6.4904639154  MEMB      131             0.0000000000
     14995       131  SLPC      H8R            -2.4438915795       22.5432597557       -5.8898050769  MEMB      131             0.0000000000
     14996       131  SLPC      H8S            -3.4078204268       23.6893039743       -6.8954186451  MEMB      131             0.0000000000
     14997       131  SLPC      C29            -2.1006141873       24.6566703577       -5.6380172776  MEMB      131             0.0000000000
     14998       131  SLPC      H9R            -2.1785906918       25.6276736939       -6.1467366720  MEMB      131             0.0000000000
     14999       131  SLPC      C210           -1.8104356866       24.5932931855       -4.3308249804  MEMB      131             0.0000000000
     15000       131  SLPC      H10R           -1.7955576425       25.5422579169       -3.7819886871  MEMB      131             0.0000000000
     15001       131  SLPC      C211           -1.7345973100       23.3408269033       -3.4837040308  MEMB      131             0.0000000000
     15002       131  SLPC      H11R           -2.5990689368       22.6704782801       -3.6783865878  MEMB      131             0.0000000000
     15003       131  SLPC      H11S           -1.8233007644       23.6229826252       -2.4118571960  MEMB      131             0.0000000000
     15004       131  SLPC      C212           -0.4246773177       22.6241093976       -3.7143389371  MEMB      131             0.0000000000
     15005       131  SLPC      H12R            0.4401107675       23.2973378704       -3.8344560596  MEMB      131             0.0000000000
     15006       131  SLPC      C213           -0.2015750791       21.2986666139       -3.8053628599  MEMB      131             0.0000000000
     15007       131  SLPC      H13R            0.8399993924       20.9601628946       -3.9189560910  MEMB      131             0.0000000000
     15008       131  SLPC      C214           -1.2097506397       20.1812568137       -3.6975952038  MEMB      131             0.0000000000
     15009       131  SLPC      H14R           -0.8950864503       19.3090335055       -4.3141405166  MEMB      131             0.0000000000
     15010       131  SLPC      H14S           -2.2044938790       20.5006067054       -4.0815840311  MEMB      131             0.0000000000
     15011       131  SLPC      C215           -1.3877676870       19.7248468023       -2.2386110626  MEMB      131             0.0000000000
     15012       131  SLPC      H15R           -2.1865889401       18.9521367629       -2.1852787465  MEMB      131             0.0000000000
     15013       131  SLPC      H15S           -1.7377074855       20.6010327911       -1.6441023706  MEMB      131             0.0000000000
     15014       131  SLPC      C216           -0.1208948971       19.1565123655       -1.5744659088  MEMB      131             0.0000000000
     15015       131  SLPC      H16R            0.7182417192       19.8767782601       -1.6885369001  MEMB      131             0.0000000000
     15016       131  SLPC      H16S            0.1955282634       18.2123889650       -2.0676089518  MEMB      131             0.0000000000
     15017       131  SLPC      C217           -0.3507097324       18.9287028314       -0.0743809595  MEMB      131             0.0000000000
     15018       131  SLPC      H17R           -0.9671104911       18.0145452752        0.0663989569  MEMB      131             0.0000000000
     15019       131  SLPC      H17S           -0.9506840594       19.7830562036        0.3152107017  MEMB      131             0.0000000000
     15020       131  SLPC      C218            0.9324453884       18.8462116867        0.7550869688  MEMB      131             0.0000000000
     15021       131  SLPC      H18R            0.6866253195       18.8035196573        1.8389551989  MEMB      131             0.0000000000
     15022       131  SLPC      H18S            1.5636319651       19.7454310886        0.5800893132  MEMB      131             0.0000000000
     15023       131  SLPC      H18T            1.5202745774       17.9452044555        0.4829097674  MEMB      131             0.0000000000
     15024       131  SLPC      C33             0.0359849233       20.0533555833       -9.8241355916  MEMB      131             0.0000000000
     15025       131  SLPC      H3X            -0.3665835502       19.3216802908       -9.0862541710  MEMB      131             0.0000000000
     15026       131  SLPC      H3Y            -0.5356988800       20.9753024848       -9.6480054041  MEMB      131             0.0000000000
     15027       131  SLPC      C34             1.5510082428       20.1916362162       -9.5803454234  MEMB      131             0.0000000000
     15028       131  SLPC      H4X             1.9812009918       20.6605763366      -10.4938121553  MEMB      131             0.0000000000
     15029       131  SLPC      H4Y             1.9329947412       19.1468964692       -9.5257485740  MEMB      131             0.0000000000
     15030       131  SLPC      C35             2.1325336576       20.9725565860       -8.3591008016  MEMB      131             0.0000000000
     15031       131  SLPC      H5X             2.8263797993       20.3290340155       -7.7850140918  MEMB      131             0.0000000000
     15032       131  SLPC      H5Y             1.3803992747       21.1602622782       -7.5812978749  MEMB      131             0.0000000000
     15033       131  SLPC      C36             2.9349754558       22.2417964718       -8.7858498754  MEMB      131             0.0000000000
     15034       131  SLPC      H6X             2.2428767362       22.9775116255       -9.1815384786  MEMB      131             0.0000000000
     15035       131  SLPC      H6Y             3.6271931790       22.0452898890       -9.6245131207  MEMB      131             0.0000000000
     15036       131  SLPC      C37             3.7133602358       22.9731133170       -7.6852882246  MEMB      131             0.0000000000
     15037       131  SLPC      H7X             4.5678262383       22.3756692615       -7.3150087936  MEMB      131             0.0000000000
     15038       131  SLPC      H7Y             2.9693489661       23.0424559271       -6.8632279242  MEMB      131             0.0000000000
     15039       131  SLPC      C38             4.2066393427       24.3847151922       -8.1053857057  MEMB      131             0.0000000000
     15040       131  SLPC      H8X             3.3598467334       24.9523329111       -8.5568187607  MEMB      131             0.0000000000
     15041       131  SLPC      H8Y             4.9888524778       24.3217641186       -8.8926849512  MEMB      131             0.0000000000
     15042       131  SLPC      C39             4.7186153715       25.2133175503       -6.9148873463  MEMB      131             0.0000000000
     15043       131  SLPC      H9X             4.8025488052       26.2869796986       -7.2013956239  MEMB      131             0.0000000000
     15044       131  SLPC      H9Y             5.7259568376       24.8615077254       -6.6057986837  MEMB      131             0.0000000000
     15045       131  SLPC      C310            3.7622880700       25.0792501058       -5.7334385173  MEMB      131             0.0000000000
     15046       131  SLPC      H10X            3.7735265000       24.0362858682       -5.3463873658  MEMB      131             0.0000000000
     15047       131  SLPC      H10Y            2.7306204941       25.3188699672       -6.0857201372  MEMB      131             0.0000000000
     15048       131  SLPC      C311            4.0604216297       25.9509568195       -4.5345238428  MEMB      131             0.0000000000
     15049       131  SLPC      H11X            4.1076096609       27.0054270292       -4.8813438947  MEMB      131             0.0000000000
     15050       131  SLPC      H11Y            5.0448127359       25.6861127298       -4.0893651997  MEMB      131             0.0000000000
     15051       131  SLPC      C312            2.9375704313       25.7434701268       -3.5166995379  MEMB      131             0.0000000000
     15052       131  SLPC      H12X            3.3226409627       25.9189804114       -2.4877860615  MEMB      131             0.0000000000
     15053       131  SLPC      H12Y            2.5854818246       24.6891290688       -3.5568453221  MEMB      131             0.0000000000
     15054       131  SLPC      C313            1.7540213890       26.6690576837       -3.7993677916  MEMB      131             0.0000000000
     15055       131  SLPC      H13X            1.0681129021       26.2352932592       -4.5582123601  MEMB      131             0.0000000000
     15056       131  SLPC      H13Y            2.1680832666       27.6135807000       -4.2267156966  MEMB      131             0.0000000000
     15057       131  SLPC      C314            1.0342058148       27.0761996512       -2.5222083713  MEMB      131             0.0000000000
     15058       131  SLPC      H14X            0.4014486812       27.9725885589       -2.7115666219  MEMB      131             0.0000000000
     15059       131  SLPC      H14Y            1.8218831114       27.3357914406       -1.7865604796  MEMB      131             0.0000000000
     15060       131  SLPC      C315            0.2478916312       26.0140240079       -1.7729231213  MEMB      131             0.0000000000
     15061       131  SLPC      H15X            0.8273293072       25.0727857634       -1.6781977517  MEMB      131             0.0000000000
     15062       131  SLPC      H15Y           -0.6668684203       25.7772433761       -2.3238758114  MEMB      131             0.0000000000
     15063       131  SLPC      C316           -0.0710342522       26.5701650770       -0.3801025070  MEMB      131             0.0000000000
     15064       131  SLPC      H16X           -0.1218759409       27.6827729904       -0.4353141970  MEMB      131             0.0000000000
     15065       131  SLPC      H16Y            0.7726139804       26.3017795627        0.2898645288  MEMB      131             0.0000000000
     15066       131  SLPC      C317           -1.3674043461       26.0579734749        0.2236687769  MEMB      131             0.0000000000
     15067       131  SLPC      H17X           -1.4844242087       26.4598768395        1.2562904898  MEMB      131             0.0000000000
     15068       131  SLPC      H17Y           -1.2869613622       24.9589884909        0.3090518982  MEMB      131             0.0000000000
     15069       131  SLPC      C318           -2.6073209038       26.4012709988       -0.5839714845  MEMB      131             0.0000000000
     15070       131  SLPC      H18X           -3.3354869715       25.5637664121       -0.5469078792  MEMB      131             0.0000000000
     15071       131  SLPC      H18Y           -2.3803124414       26.6082843005       -1.6494071061  MEMB      131             0.0000000000
     15072       131  SLPC      H18Z           -3.0807453410       27.3099127941       -0.1600499451  MEMB      131             0.0000000000
     15073       132  SAPE      N              22.1548499876        4.9870734656      -18.9040901938  MEMB      132             0.0000000000
     15074       132  SAPE      HN1            22.1675433909        4.4419186447      -18.0166790281  MEMB      132             0.0000000000
     15075       132  SAPE      HN2            21.1708019593        5.2378496649      -19.1696379531  MEMB      132             0.0000000000
     15076       132  SAPE      HN3            22.5931159481        4.3821972202      -19.6334147414  MEMB      132             0.0000000000
     15077       132  SAPE      C12            23.0090250832        6.2302695136      -18.8028531477  MEMB      132             0.0000000000
     15078       132  SAPE      H12A           23.3564782209        6.3391589208      -17.7587239183  MEMB      132             0.0000000000
     15079       132  SAPE      H12B           22.3692621259        7.1045987639      -19.0615540878  MEMB      132             0.0000000000
     15080       132  SAPE      C11            24.2131707097        6.1606942967      -19.7712722006  MEMB      132             0.0000000000
     15081       132  SAPE      H11A           24.8109013799        7.0946220809      -19.6529058777  MEMB      132             0.0000000000
     15082       132  SAPE      H11B           23.7478300928        6.2266267118      -20.7928349258  MEMB      132             0.0000000000
     15083       132  SAPE      P              25.7214668413        4.3969653822      -20.9195045411  MEMB      132             0.0000000000
     15084       132  SAPE      O13            24.5480537050        4.2237861390      -21.8045214670  MEMB      132             0.0000000000
     15085       132  SAPE      O14            26.8801022912        5.1867176643      -21.4091870866  MEMB      132             0.0000000000
     15086       132  SAPE      O12            25.0720109533        4.9979708077      -19.5707816216  MEMB      132             0.0000000000
     15087       132  SAPE      O11            26.2562634129        2.9637670749      -20.5194421611  MEMB      132             0.0000000000
     15088       132  SAPE      C1             25.4718325873        1.7760091253      -20.6208145535  MEMB      132             0.0000000000
     15089       132  SAPE      HA             24.7633020317        1.7989451371      -21.4825080409  MEMB      132             0.0000000000
     15090       132  SAPE      HB             26.1537758329        0.9165610928      -20.7874282026  MEMB      132             0.0000000000
     15091       132  SAPE      C2             24.7039298371        1.5679886557      -19.2992973722  MEMB      132             0.0000000000
     15092       132  SAPE      HS             23.8949146129        2.3313573493      -19.3568044254  MEMB      132             0.0000000000
     15093       132  SAPE      O21            25.6141510686        1.8150203867      -18.2147774287  MEMB      132             0.0000000000
     15094       132  SAPE      C21            25.1754469837        2.6495149142      -17.3012258008  MEMB      132             0.0000000000
     15095       132  SAPE      O22            24.0366577420        3.0947078288      -17.2096775054  MEMB      132             0.0000000000
     15096       132  SAPE      C22            26.3214945718        3.0590796036      -16.3912331004  MEMB      132             0.0000000000
     15097       132  SAPE      H2R            27.1168095232        2.2884912389      -16.4454662529  MEMB      132             0.0000000000
     15098       132  SAPE      H2S            26.7077393149        4.0127227344      -16.8130121025  MEMB      132             0.0000000000
     15099       132  SAPE      C3             24.0434851468        0.1739372339      -19.0967666801  MEMB      132             0.0000000000
     15100       132  SAPE      HX             24.8483223082       -0.5953621755      -19.1153995412  MEMB      132             0.0000000000
     15101       132  SAPE      HY             23.3694926769       -0.0676119948      -19.9443506161  MEMB      132             0.0000000000
     15102       132  SAPE      O31            23.3448290890        0.0918260537      -17.8268238375  MEMB      132             0.0000000000
     15103       132  SAPE      C31            22.2904204136        0.8673816407      -17.6698181140  MEMB      132             0.0000000000
     15104       132  SAPE      O32            21.8204838497        1.6261765582      -18.5104387942  MEMB      132             0.0000000000
     15105       132  SAPE      C32            21.7401310284        0.6862474390      -16.2523004483  MEMB      132             0.0000000000
     15106       132  SAPE      H2X            21.8170960351       -0.3912259776      -16.0335085931  MEMB      132             0.0000000000
     15107       132  SAPE      H2Y            20.6650205269        0.9486330868      -16.2622625362  MEMB      132             0.0000000000
     15108       132  SAPE      C23            25.9290629321        3.2921888375      -14.9163784551  MEMB      132             0.0000000000
     15109       132  SAPE      H3R            25.4368262691        2.3987591355      -14.4755311752  MEMB      132             0.0000000000
     15110       132  SAPE      H3S            25.1980233045        4.1279069005      -14.8545041281  MEMB      132             0.0000000000
     15111       132  SAPE      C24            27.1916138203        3.6383257411      -14.1149100948  MEMB      132             0.0000000000
     15112       132  SAPE      H4R            27.6163619382        4.5731954659      -14.5444072213  MEMB      132             0.0000000000
     15113       132  SAPE      H4S            27.9625966387        2.8617822069      -14.3038406048  MEMB      132             0.0000000000
     15114       132  SAPE      C25            26.9054601859        3.7730081991      -12.6400906212  MEMB      132             0.0000000000
     15115       132  SAPE      H5R            26.8262091729        2.8395113991      -12.0615159365  MEMB      132             0.0000000000
     15116       132  SAPE      C26            26.7166339206        4.9479041535      -12.0171365801  MEMB      132             0.0000000000
     15117       132  SAPE      H6R            26.4594124408        4.9525813644      -10.9462999295  MEMB      132             0.0000000000
     15118       132  SAPE      C27            26.7580629378        6.2964321683      -12.7020544834  MEMB      132             0.0000000000
     15119       132  SAPE      H7R            27.7269944182        6.4096265510      -13.2375873832  MEMB      132             0.0000000000
     15120       132  SAPE      H7S            26.7307816218        7.1101669321      -11.9462445934  MEMB      132             0.0000000000
     15121       132  SAPE      C28            25.6248678152        6.4514960148      -13.6921516641  MEMB      132             0.0000000000
     15122       132  SAPE      H8R            25.9221756556        6.6041825813      -14.7434620956  MEMB      132             0.0000000000
     15123       132  SAPE      C29            24.3163041751        6.4484502443      -13.3807861175  MEMB      132             0.0000000000
     15124       132  SAPE      H9R            23.5735969362        6.5052924662      -14.1851230741  MEMB      132             0.0000000000
     15125       132  SAPE      C210           23.7292191238        6.3112198584      -12.0045063171  MEMB      132             0.0000000000
     15126       132  SAPE      H10R           22.9500511607        7.0785215770      -11.9207774659  MEMB      132             0.0000000000
     15127       132  SAPE      H10S           24.4913947954        6.5515253990      -11.2300710425  MEMB      132             0.0000000000
     15128       132  SAPE      C211           23.0170052081        5.0432066070      -11.6854168390  MEMB      132             0.0000000000
     15129       132  SAPE      H11R           22.5579448283        4.5412598780      -12.5495159376  MEMB      132             0.0000000000
     15130       132  SAPE      C212           22.8391764573        4.5665523699      -10.4423947751  MEMB      132             0.0000000000
     15131       132  SAPE      H12R           22.3109481535        3.6175005255      -10.3238478004  MEMB      132             0.0000000000
     15132       132  SAPE      C213           23.3109146688        5.1984154243       -9.1539689277  MEMB      132             0.0000000000
     15133       132  SAPE      H13R           23.5956767362        6.2608302329       -9.3167976307  MEMB      132             0.0000000000
     15134       132  SAPE      H13S           24.2344369345        4.6770982363       -8.8189347998  MEMB      132             0.0000000000
     15135       132  SAPE      C214           22.2503159433        5.1636337176       -8.0802457489  MEMB      132             0.0000000000
     15136       132  SAPE      H14R           21.2236789553        4.9673785763       -8.4339247016  MEMB      132             0.0000000000
     15137       132  SAPE      C215           22.4461373966        5.2474390518       -6.7519153368  MEMB      132             0.0000000000
     15138       132  SAPE      H15R           21.5663845886        5.1078583959       -6.1032307027  MEMB      132             0.0000000000
     15139       132  SAPE      C216           23.7524039783        5.3861537593       -6.0032046494  MEMB      132             0.0000000000
     15140       132  SAPE      H16R           24.5673791182        4.9070926988       -6.5903556100  MEMB      132             0.0000000000
     15141       132  SAPE      H16S           23.5767791522        4.7951638442       -5.0749716885  MEMB      132             0.0000000000
     15142       132  SAPE      C217           24.3560922800        6.6916609572       -5.4271483770  MEMB      132             0.0000000000
     15143       132  SAPE      H17R           23.7298392389        6.9488122979       -4.5551052897  MEMB      132             0.0000000000
     15144       132  SAPE      H17S           24.3039966285        7.5120081336       -6.1704664828  MEMB      132             0.0000000000
     15145       132  SAPE      C218           25.8022421904        6.5394713003       -4.9011127219  MEMB      132             0.0000000000
     15146       132  SAPE      H18R           26.4884994189        6.5929734452       -5.7747905974  MEMB      132             0.0000000000
     15147       132  SAPE      H18S           25.9198037198        5.5328601367       -4.4420441677  MEMB      132             0.0000000000
     15148       132  SAPE      C219           26.2496223250        7.5877631997       -3.8568145876  MEMB      132             0.0000000000
     15149       132  SAPE      H19R           25.8510876308        8.5898071783       -4.1227737951  MEMB      132             0.0000000000
     15150       132  SAPE      H19S           27.3616435779        7.6581182061       -3.8928209425  MEMB      132             0.0000000000
     15151       132  SAPE      C220           25.8858934065        7.2399016547       -2.4090856585  MEMB      132             0.0000000000
     15152       132  SAPE      H20R           26.4594780007        6.3519711532       -2.0814814452  MEMB      132             0.0000000000
     15153       132  SAPE      H20S           24.8111957598        6.9932932570       -2.3194964258  MEMB      132             0.0000000000
     15154       132  SAPE      H20T           26.1192263271        8.0762582497       -1.7144742794  MEMB      132             0.0000000000
     15155       132  SAPE      C33            22.4597775183        1.4927213185      -15.1314626892  MEMB      132             0.0000000000
     15156       132  SAPE      H3X            22.0892350263        2.5421767100      -15.1519660648  MEMB      132             0.0000000000
     15157       132  SAPE      H3Y            23.5544262381        1.5212203915      -15.3242127380  MEMB      132             0.0000000000
     15158       132  SAPE      C34            22.2693699580        0.8847175757      -13.7230275338  MEMB      132             0.0000000000
     15159       132  SAPE      H4X            23.1775063678        0.3037890042      -13.4600095080  MEMB      132             0.0000000000
     15160       132  SAPE      H4Y            21.3989670398        0.1957510743      -13.7317930529  MEMB      132             0.0000000000
     15161       132  SAPE      C35            22.0687560805        1.8777559137      -12.5768215878  MEMB      132             0.0000000000
     15162       132  SAPE      H5X            21.1767839442        2.5007316138      -12.8094871167  MEMB      132             0.0000000000
     15163       132  SAPE      H5Y            22.9599806935        2.5379911728      -12.5454749621  MEMB      132             0.0000000000
     15164       132  SAPE      C36            21.8896661906        1.2165586535      -11.1858098165  MEMB      132             0.0000000000
     15165       132  SAPE      H6X            21.2001493818        0.3511008365      -11.2554060454  MEMB      132             0.0000000000
     15166       132  SAPE      H6Y            21.3795475224        1.9492258924      -10.5253040248  MEMB      132             0.0000000000
     15167       132  SAPE      C37            23.2238337899        0.8039785509      -10.5236970107  MEMB      132             0.0000000000
     15168       132  SAPE      H7X            23.9645307788        1.6113883919      -10.7237486873  MEMB      132             0.0000000000
     15169       132  SAPE      H7Y            23.6011057277       -0.1204325465      -11.0116784650  MEMB      132             0.0000000000
     15170       132  SAPE      C38            23.1849423116        0.6115066386       -8.9889691122  MEMB      132             0.0000000000
     15171       132  SAPE      H8X            22.5847046065       -0.2920612901       -8.7373582399  MEMB      132             0.0000000000
     15172       132  SAPE      H8Y            22.6707105096        1.4831875419       -8.5300111883  MEMB      132             0.0000000000
     15173       132  SAPE      C39            24.6084808651        0.4959755707       -8.3876486866  MEMB      132             0.0000000000
     15174       132  SAPE      H9X            25.2371767127        1.3236145963       -8.7750182130  MEMB      132             0.0000000000
     15175       132  SAPE      H9Y            25.0511592443       -0.4538352087       -8.7679812117  MEMB      132             0.0000000000
     15176       132  SAPE      C310           24.7042907935        0.4992228653       -6.8392773818  MEMB      132             0.0000000000
     15177       132  SAPE      H10X           25.7496468656        0.3244930285       -6.5144739500  MEMB      132             0.0000000000
     15178       132  SAPE      H10Y           24.1136788481       -0.3921033578       -6.5493735935  MEMB      132             0.0000000000
     15179       132  SAPE      C311           24.1049055303        1.7386807794       -6.1323920607  MEMB      132             0.0000000000
     15180       132  SAPE      H11X           23.0536850711        1.4815501958       -5.8680152210  MEMB      132             0.0000000000
     15181       132  SAPE      H11Y           24.0259549870        2.5302822054       -6.9111945250  MEMB      132             0.0000000000
     15182       132  SAPE      C312           24.7366955372        2.4277509477       -4.8683249492  MEMB      132             0.0000000000
     15183       132  SAPE      H12X           23.9952881860        2.5497886312       -4.0545741587  MEMB      132             0.0000000000
     15184       132  SAPE      H12Y           24.9289993401        3.4455500782       -5.2407577353  MEMB      132             0.0000000000
     15185       132  SAPE      C313           26.1439302421        2.1769081849       -4.3002291773  MEMB      132             0.0000000000
     15186       132  SAPE      H13X           26.6135426461        3.1511026284       -4.0319246822  MEMB      132             0.0000000000
     15187       132  SAPE      H13Y           26.7553237787        1.7466618882       -5.1240335279  MEMB      132             0.0000000000
     15188       132  SAPE      C314           26.2116462058        1.2800813553       -3.0530888561  MEMB      132             0.0000000000
     15189       132  SAPE      H14X           27.2718378625        0.9410036030       -2.9707251646  MEMB      132             0.0000000000
     15190       132  SAPE      H14Y           25.5325664748        0.4454191446       -3.2841852883  MEMB      132             0.0000000000
     15191       132  SAPE      C315           25.8189704948        1.6966656081       -1.6173595553  MEMB      132             0.0000000000
     15192       132  SAPE      H15X           24.7993863020        2.1292734021       -1.5957518615  MEMB      132             0.0000000000
     15193       132  SAPE      H15Y           26.5697643249        2.4247744379       -1.2761031494  MEMB      132             0.0000000000
     15194       132  SAPE      C316           25.9098585715        0.4295697432       -0.7295859757  MEMB      132             0.0000000000
     15195       132  SAPE      H16X           26.9297308090        0.0151491962       -0.8779942693  MEMB      132             0.0000000000
     15196       132  SAPE      H16Y           25.1622672922       -0.2742972967       -1.1565828442  MEMB      132             0.0000000000
     15197       132  SAPE      C317           25.6917730964        0.4014698255        0.8000491504  MEMB      132             0.0000000000
     15198       132  SAPE      H17X           26.1916153258       -0.5369994188        1.1486101092  MEMB      132             0.0000000000
     15199       132  SAPE      H17Y           24.6165169238        0.2465780280        1.0166771121  MEMB      132             0.0000000000
     15200       132  SAPE      C318           26.2189900843        1.5497798599        1.6622305659  MEMB      132             0.0000000000
     15201       132  SAPE      H18X           27.2875416337        1.7597860274        1.4531581308  MEMB      132             0.0000000000
     15202       132  SAPE      H18Y           26.1069774765        1.2952557753        2.7373432512  MEMB      132             0.0000000000
     15203       132  SAPE      H18Z           25.6451286374        2.4780628692        1.5123391613  MEMB      132             0.0000000000
     15204       133  CHL1      C3            -23.2063687158       -8.6996430682      -17.4519078676  MEMB      133             0.0000000000
     15205       133  CHL1      H3            -22.1347198288       -8.4136861639      -17.3945594901  MEMB      133             0.0000000000
     15206       133  CHL1      O3            -23.6222070790       -8.7399849616      -18.8005770587  MEMB      133             0.0000000000
     15207       133  CHL1      H3'           -23.3720159953       -7.8818028625      -19.1550256191  MEMB      133             0.0000000000
     15208       133  CHL1      C4            -23.3838066814      -10.0959087440      -16.8499868557  MEMB      133             0.0000000000
     15209       133  CHL1      H4A           -24.4205216500      -10.4336552505      -17.0698002403  MEMB      133             0.0000000000
     15210       133  CHL1      H4B           -22.6961852084      -10.7826354299      -17.3961449721  MEMB      133             0.0000000000
     15211       133  CHL1      C5            -23.1435355279      -10.1226176702      -15.3559563375  MEMB      133             0.0000000000
     15212       133  CHL1      C6            -22.2863077882      -10.9902123873      -14.7953744911  MEMB      133             0.0000000000
     15213       133  CHL1      H6            -21.7515443939      -11.7069626582      -15.4343581601  MEMB      133             0.0000000000
     15214       133  CHL1      C7            -22.0773743930      -11.1127246425      -13.3087759910  MEMB      133             0.0000000000
     15215       133  CHL1      H7A           -22.1227140489      -12.1778226797      -12.9949540698  MEMB      133             0.0000000000
     15216       133  CHL1      H7B           -21.0683989863      -10.7281500537      -13.0450806089  MEMB      133             0.0000000000
     15217       133  CHL1      C8            -23.1268634211      -10.3091488487      -12.4878302028  MEMB      133             0.0000000000
     15218       133  CHL1      H8            -24.0754425793      -10.8872696566      -12.5019733109  MEMB      133             0.0000000000
     15219       133  CHL1      C14           -22.6677332282      -10.1358195236      -11.0517649770  MEMB      133             0.0000000000
     15220       133  CHL1      H14           -21.7343307407       -9.5399584115      -11.1170746613  MEMB      133             0.0000000000
     15221       133  CHL1      C15           -22.2835693531      -11.3927207850      -10.2546195158  MEMB      133             0.0000000000
     15222       133  CHL1      H15A          -23.0466639393      -12.1870802638      -10.3991104604  MEMB      133             0.0000000000
     15223       133  CHL1      H15B          -21.2869269395      -11.7775199800      -10.5550367491  MEMB      133             0.0000000000
     15224       133  CHL1      C16           -22.2954799471      -10.9093111548       -8.8009217478  MEMB      133             0.0000000000
     15225       133  CHL1      H16A          -22.8988624218      -11.6092753628       -8.1857629225  MEMB      133             0.0000000000
     15226       133  CHL1      H16B          -21.2749663435      -10.8633863327       -8.3752670513  MEMB      133             0.0000000000
     15227       133  CHL1      C17           -22.9179591625       -9.4774038583       -8.7857672449  MEMB      133             0.0000000000
     15228       133  CHL1      H17           -22.0720721383       -8.7514567208       -8.7646059188  MEMB      133             0.0000000000
     15229       133  CHL1      C13           -23.5790426513       -9.2941436654      -10.1681204844  MEMB      133             0.0000000000
     15230       133  CHL1      C18           -24.9811766409       -9.9140189018      -10.1450292276  MEMB      133             0.0000000000
     15231       133  CHL1      H18A          -24.9492861352      -10.9327355898       -9.7126695511  MEMB      133             0.0000000000
     15232       133  CHL1      H18B          -25.6724883924       -9.2953675246       -9.5461168015  MEMB      133             0.0000000000
     15233       133  CHL1      H18C          -25.4188507400       -9.9822223591      -11.1598268468  MEMB      133             0.0000000000
     15234       133  CHL1      C12           -23.5832428601       -7.8716065713      -10.7570634960  MEMB      133             0.0000000000
     15235       133  CHL1      H12A          -24.2155323590       -7.1807363802      -10.1682903054  MEMB      133             0.0000000000
     15236       133  CHL1      H12B          -22.5420984388       -7.4811485961      -10.7294618025  MEMB      133             0.0000000000
     15237       133  CHL1      C11           -24.0660881839       -7.8875978982      -12.2171660500  MEMB      133             0.0000000000
     15238       133  CHL1      H11A          -25.1590681088       -8.0701190543      -12.2166356655  MEMB      133             0.0000000000
     15239       133  CHL1      H11B          -23.8948184090       -6.8719805537      -12.6324355517  MEMB      133             0.0000000000
     15240       133  CHL1      C9            -23.3280150402       -8.9267696443      -13.1174564384  MEMB      133             0.0000000000
     15241       133  CHL1      H9            -22.2905538090       -8.5141318912      -13.2159019921  MEMB      133             0.0000000000
     15242       133  CHL1      C10           -23.8834391596       -9.0355340709      -14.5536319756  MEMB      133             0.0000000000
     15243       133  CHL1      C19           -25.3750430687       -9.4371836207      -14.4944093772  MEMB      133             0.0000000000
     15244       133  CHL1      H19A          -25.5520227244      -10.3028436429      -13.8304934073  MEMB      133             0.0000000000
     15245       133  CHL1      H19B          -25.9720119177       -8.5916698288      -14.1125129852  MEMB      133             0.0000000000
     15246       133  CHL1      H19C          -25.7706452993       -9.6983107624      -15.4982679148  MEMB      133             0.0000000000
     15247       133  CHL1      C1            -23.7450538405       -7.6484109958      -15.2385712837  MEMB      133             0.0000000000
     15248       133  CHL1      H1A           -24.4264114423       -6.9290820371      -14.7395970666  MEMB      133             0.0000000000
     15249       133  CHL1      H1B           -22.7035459314       -7.2775457023      -15.1053532640  MEMB      133             0.0000000000
     15250       133  CHL1      C2            -24.0659594713       -7.6652577595      -16.7336915042  MEMB      133             0.0000000000
     15251       133  CHL1      H2A           -23.9233828995       -6.6552402370      -17.1747371888  MEMB      133             0.0000000000
     15252       133  CHL1      H2B           -25.1251232516       -7.9571786369      -16.8702147261  MEMB      133             0.0000000000
     15253       133  CHL1      C20           -23.7367757382       -9.2504654995       -7.5100132400  MEMB      133             0.0000000000
     15254       133  CHL1      H20           -24.5505519725      -10.0121198094       -7.4611416577  MEMB      133             0.0000000000
     15255       133  CHL1      C21           -24.3745456345       -7.8554281612       -7.5043854569  MEMB      133             0.0000000000
     15256       133  CHL1      H21A          -23.5958723698       -7.0656736155       -7.5381023877  MEMB      133             0.0000000000
     15257       133  CHL1      H21B          -24.9825079081       -7.7202963019       -6.5884139569  MEMB      133             0.0000000000
     15258       133  CHL1      H21C          -25.0589086043       -7.7036877320       -8.3585616780  MEMB      133             0.0000000000
     15259       133  CHL1      C22           -22.8586270531       -9.4020407690       -6.2426136981  MEMB      133             0.0000000000
     15260       133  CHL1      H22A          -22.2172895710      -10.3065935352       -6.3095802133  MEMB      133             0.0000000000
     15261       133  CHL1      H22B          -22.1784780678       -8.5234202508       -6.1811974612  MEMB      133             0.0000000000
     15262       133  CHL1      C23           -23.6516978483       -9.5311590318       -4.9360228954  MEMB      133             0.0000000000
     15263       133  CHL1      H23A          -24.3851500341       -8.7012955684       -4.8315922600  MEMB      133             0.0000000000
     15264       133  CHL1      H23B          -24.2196849782      -10.4881826991       -4.9487562232  MEMB      133             0.0000000000
     15265       133  CHL1      C24           -22.7290894433       -9.4865458715       -3.7135503504  MEMB      133             0.0000000000
     15266       133  CHL1      H24A          -21.8839162430      -10.2020026445       -3.8340032041  MEMB      133             0.0000000000
     15267       133  CHL1      H24B          -22.2965682219       -8.4629169670       -3.6570861140  MEMB      133             0.0000000000
     15268       133  CHL1      C25           -23.4806643277       -9.7943565977       -2.4072693896  MEMB      133             0.0000000000
     15269       133  CHL1      H25           -24.5414263953       -9.4759462634       -2.5464827289  MEMB      133             0.0000000000
     15270       133  CHL1      C26           -23.4488760007      -11.2937345560       -2.0992750523  MEMB      133             0.0000000000
     15271       133  CHL1      H26A          -23.6873767251      -11.9035639001       -2.9942908161  MEMB      133             0.0000000000
     15272       133  CHL1      H26B          -22.4368537532      -11.5825543770       -1.7467397604  MEMB      133             0.0000000000
     15273       133  CHL1      H26C          -24.1814035313      -11.5339201874       -1.3003356663  MEMB      133             0.0000000000
     15274       133  CHL1      C27           -22.9122764445       -9.0165176348       -1.2152692325  MEMB      133             0.0000000000
     15275       133  CHL1      H27A          -22.8761736330       -7.9300651311       -1.4339437632  MEMB      133             0.0000000000
     15276       133  CHL1      H27B          -23.5406584520       -9.1766904591       -0.3152498963  MEMB      133             0.0000000000
     15277       133  CHL1      H27C          -21.8844744699       -9.3704109990       -0.9903858169  MEMB      133             0.0000000000
     15278       134  SAPS      N              -3.1570749544       29.3680345019      -21.6819020580  MEMB      134             0.0000000000
     15279       134  SAPS      HN1            -2.5677877472       29.3781042440      -22.5439517208  MEMB      134             0.0000000000
     15280       134  SAPS      HN2            -3.9854930328       29.9879017454      -21.7615804447  MEMB      134             0.0000000000
     15281       134  SAPS      HN3            -2.5189081788       29.6747582055      -20.9147855094  MEMB      134             0.0000000000
     15282       134  SAPS      C12            -3.5425924521       27.9428451890      -21.3802345634  MEMB      134             0.0000000000
     15283       134  SAPS      H12A           -3.9550071208       27.4883169109      -22.2702214075  MEMB      134             0.0000000000
     15284       134  SAPS      C13            -2.2482487631       27.1683851482      -20.9812804097  MEMB      134             0.0000000000
     15285       134  SAPS      O13A           -1.2863506286       27.8583054200      -20.5101884816  MEMB      134             0.0000000000
     15286       134  SAPS      O13B           -2.0495773449       26.1079699776      -21.6389500671  MEMB      134             0.0000000000
     15287       134  SAPS      C11            -4.6113493638       27.9135780919      -20.2253801569  MEMB      134             0.0000000000
     15288       134  SAPS      H11A           -5.3112875765       28.7672821897      -20.3693373496  MEMB      134             0.0000000000
     15289       134  SAPS      H11B           -4.0508122843       28.0871668494      -19.2739853864  MEMB      134             0.0000000000
     15290       134  SAPS      P              -6.0737638850       26.3285050410      -18.7634846335  MEMB      134             0.0000000000
     15291       134  SAPS      O13            -5.9340774893       27.4719282039      -17.8340655297  MEMB      134             0.0000000000
     15292       134  SAPS      O14            -7.4265118919       25.7682076780      -18.9965429929  MEMB      134             0.0000000000
     15293       134  SAPS      O12            -5.4125313187       26.7142945114      -20.1840142065  MEMB      134             0.0000000000
     15294       134  SAPS      O11            -5.1351082038       25.1644396417      -18.2545359212  MEMB      134             0.0000000000
     15295       134  SAPS      C1             -4.9192204783       24.0495383656      -19.1264009777  MEMB      134             0.0000000000
     15296       134  SAPS      HA             -5.8150430514       23.3903796045      -19.1109898104  MEMB      134             0.0000000000
     15297       134  SAPS      HB             -4.7374202437       24.3685546626      -20.1818362405  MEMB      134             0.0000000000
     15298       134  SAPS      C2             -3.6829800710       23.1944683470      -18.7169171737  MEMB      134             0.0000000000
     15299       134  SAPS      HS             -3.8463837940       22.1601002660      -19.0953902411  MEMB      134             0.0000000000
     15300       134  SAPS      O21            -3.4526091583       23.1501256887      -17.2958252038  MEMB      134             0.0000000000
     15301       134  SAPS      C21            -4.3826857201       22.5145263472      -16.6052622324  MEMB      134             0.0000000000
     15302       134  SAPS      O22            -5.3696725591       21.9726439465      -17.0703092723  MEMB      134             0.0000000000
     15303       134  SAPS      C22            -3.8233903407       22.2511495295      -15.1953118610  MEMB      134             0.0000000000
     15304       134  SAPS      H2R            -3.9379142061       21.1577330413      -15.0404953437  MEMB      134             0.0000000000
     15305       134  SAPS      H2S            -2.7349174712       22.4732291266      -15.1923780423  MEMB      134             0.0000000000
     15306       134  SAPS      C3             -2.4069894185       23.7381850267      -19.4234401425  MEMB      134             0.0000000000
     15307       134  SAPS      HX             -2.6234819244       23.7838932118      -20.5136994522  MEMB      134             0.0000000000
     15308       134  SAPS      HY             -1.5602108666       23.0196878430      -19.2944419169  MEMB      134             0.0000000000
     15309       134  SAPS      O31            -2.1020757782       25.0747384121      -18.9703968886  MEMB      134             0.0000000000
     15310       134  SAPS      C31            -1.3993869128       25.0842351920      -17.8528608316  MEMB      134             0.0000000000
     15311       134  SAPS      O32            -0.7869349648       24.1307700204      -17.4028792842  MEMB      134             0.0000000000
     15312       134  SAPS      C32            -1.4149998740       26.4575697017      -17.1800070833  MEMB      134             0.0000000000
     15313       134  SAPS      H2X            -2.4107363957       26.9133491767      -17.3589923255  MEMB      134             0.0000000000
     15314       134  SAPS      H2Y            -0.6351664445       27.0828496839      -17.6537468017  MEMB      134             0.0000000000
     15315       134  SAPS      C23            -4.4867694345       22.9747933616      -13.9919467820  MEMB      134             0.0000000000
     15316       134  SAPS      H3R            -3.9859249521       22.5462952161      -13.0849734459  MEMB      134             0.0000000000
     15317       134  SAPS      H3S            -5.5700003841       22.8044119978      -13.8676309223  MEMB      134             0.0000000000
     15318       134  SAPS      C24            -4.2005840607       24.4765807619      -13.9505215728  MEMB      134             0.0000000000
     15319       134  SAPS      H4R            -3.1423654262       24.5622653562      -14.2441895845  MEMB      134             0.0000000000
     15320       134  SAPS      H4S            -4.2390048304       24.7699905837      -12.8857220266  MEMB      134             0.0000000000
     15321       134  SAPS      C25            -5.0355159273       25.4236806054      -14.7771723948  MEMB      134             0.0000000000
     15322       134  SAPS      H5R            -4.8081708534       25.4341003626      -15.8592470151  MEMB      134             0.0000000000
     15323       134  SAPS      C26            -6.0387877666       26.2066017291      -14.3286320994  MEMB      134             0.0000000000
     15324       134  SAPS      H6R            -6.4997938853       26.8877208354      -15.0645572330  MEMB      134             0.0000000000
     15325       134  SAPS      C27            -6.5515014149       26.2970038692      -12.9005698331  MEMB      134             0.0000000000
     15326       134  SAPS      H7R            -6.0274687358       25.5543493643      -12.2632451729  MEMB      134             0.0000000000
     15327       134  SAPS      H7S            -7.6049512147       25.9541599396      -12.9031452889  MEMB      134             0.0000000000
     15328       134  SAPS      C28            -6.4559495446       27.6224377715      -12.1768144544  MEMB      134             0.0000000000
     15329       134  SAPS      H8R            -5.8377305605       28.3871367922      -12.6792813546  MEMB      134             0.0000000000
     15330       134  SAPS      C29            -7.1137333140       27.9459554483      -11.0371007566  MEMB      134             0.0000000000
     15331       134  SAPS      H9R            -6.9981218199       28.9717656580      -10.6399092844  MEMB      134             0.0000000000
     15332       134  SAPS      C210           -8.0812535979       27.0571484337      -10.2691166791  MEMB      134             0.0000000000
     15333       134  SAPS      H10R           -8.2540146435       26.0901281717      -10.7893228553  MEMB      134             0.0000000000
     15334       134  SAPS      H10S           -9.0129188896       27.6313289932      -10.4242772950  MEMB      134             0.0000000000
     15335       134  SAPS      C211           -7.9788553949       26.8517412852       -8.7566450398  MEMB      134             0.0000000000
     15336       134  SAPS      H11R           -7.6763891444       27.7796702810       -8.2458621184  MEMB      134             0.0000000000
     15337       134  SAPS      C212           -8.1681113918       25.7543798826       -7.9516474990  MEMB      134             0.0000000000
     15338       134  SAPS      H12R           -8.0357953131       25.9133945345       -6.8709444467  MEMB      134             0.0000000000
     15339       134  SAPS      C213           -8.5476668624       24.3084871802       -8.2700843236  MEMB      134             0.0000000000
     15340       134  SAPS      H13R           -7.6074314122       23.7308952013       -8.2510037094  MEMB      134             0.0000000000
     15341       134  SAPS      H13S           -8.8224283616       24.2676912907       -9.3465259341  MEMB      134             0.0000000000
     15342       134  SAPS      C214           -9.5590482185       23.4285678256       -7.5181413986  MEMB      134             0.0000000000
     15343       134  SAPS      H14R          -10.4271239018       23.2089398399       -8.1506989143  MEMB      134             0.0000000000
     15344       134  SAPS      C215           -9.6602083285       22.8294184403       -6.3008960819  MEMB      134             0.0000000000
     15345       134  SAPS      H15R          -10.5201879761       22.1565116404       -6.1823471942  MEMB      134             0.0000000000
     15346       134  SAPS      C216           -8.7917140445       22.7498330371       -5.0676522500  MEMB      134             0.0000000000
     15347       134  SAPS      H16R           -9.0367526531       23.6096448460       -4.4077470144  MEMB      134             0.0000000000
     15348       134  SAPS      H16S           -7.7314236701       22.8278747086       -5.3042284150  MEMB      134             0.0000000000
     15349       134  SAPS      C217           -8.9324830271       21.4700481434       -4.1940405807  MEMB      134             0.0000000000
     15350       134  SAPS      H17R           -9.7901871157       20.8489292508       -4.5361886141  MEMB      134             0.0000000000
     15351       134  SAPS      H17S           -9.1929895342       21.7975532532       -3.1684496164  MEMB      134             0.0000000000
     15352       134  SAPS      C218           -7.6694234710       20.5724841011       -4.1398317802  MEMB      134             0.0000000000
     15353       134  SAPS      H18R           -7.3931273303       20.2732026734       -5.1699773053  MEMB      134             0.0000000000
     15354       134  SAPS      H18S           -7.8613571833       19.6511569801       -3.5826184418  MEMB      134             0.0000000000
     15355       134  SAPS      C219           -6.4823748346       21.0568048458       -3.3117394742  MEMB      134             0.0000000000
     15356       134  SAPS      H19R           -6.7421417818       21.1430895445       -2.2477869642  MEMB      134             0.0000000000
     15357       134  SAPS      H19S           -6.2583340926       22.0578995561       -3.6892381704  MEMB      134             0.0000000000
     15358       134  SAPS      C220           -5.2376824702       20.1636641638       -3.3564198689  MEMB      134             0.0000000000
     15359       134  SAPS      H20R           -5.2401706761       19.3793062418       -2.5734103180  MEMB      134             0.0000000000
     15360       134  SAPS      H20S           -4.3405479412       20.8102891360       -3.2133757308  MEMB      134             0.0000000000
     15361       134  SAPS      H20T           -5.1800156463       19.6731060537       -4.3517918440  MEMB      134             0.0000000000
     15362       134  SAPS      C33            -1.1410073821       26.2810604746      -15.6605632484  MEMB      134             0.0000000000
     15363       134  SAPS      H3X            -0.1332313388       25.8432452891      -15.4935299134  MEMB      134             0.0000000000
     15364       134  SAPS      H3Y            -1.8743784322       25.5511249510      -15.2815432645  MEMB      134             0.0000000000
     15365       134  SAPS      C34            -1.2935893758       27.5565714403      -14.8278455460  MEMB      134             0.0000000000
     15366       134  SAPS      H4X            -2.3262838993       27.9462129692      -14.9631639987  MEMB      134             0.0000000000
     15367       134  SAPS      H4Y            -0.5825973444       28.2613410803      -15.3166778915  MEMB      134             0.0000000000
     15368       134  SAPS      C35            -0.9316216884       27.5096526741      -13.3137112622  MEMB      134             0.0000000000
     15369       134  SAPS      H5X            -0.8720008927       28.4971691317      -12.8216833031  MEMB      134             0.0000000000
     15370       134  SAPS      H5Y             0.1127218257       27.1136916358      -13.2959480765  MEMB      134             0.0000000000
     15371       134  SAPS      C36            -1.7614087378       26.6128817651      -12.3753309439  MEMB      134             0.0000000000
     15372       134  SAPS      H6X            -1.0532154594       26.3655914021      -11.5706516274  MEMB      134             0.0000000000
     15373       134  SAPS      H6Y            -2.0047921184       25.7099594218      -12.9706772162  MEMB      134             0.0000000000
     15374       134  SAPS      C37            -3.0311306406       27.0018451165      -11.5833503040  MEMB      134             0.0000000000
     15375       134  SAPS      H7X            -3.5904248642       26.0442429990      -11.4625664781  MEMB      134             0.0000000000
     15376       134  SAPS      H7Y            -3.6762208993       27.6524751080      -12.2058286710  MEMB      134             0.0000000000
     15377       134  SAPS      C38            -2.9559633404       27.5169624423      -10.1068581587  MEMB      134             0.0000000000
     15378       134  SAPS      H8X            -3.9430917348       27.3043097315       -9.6355665408  MEMB      134             0.0000000000
     15379       134  SAPS      H8Y            -2.8968222421       28.6070039697      -10.1788458194  MEMB      134             0.0000000000
     15380       134  SAPS      C39            -1.8526086261       27.0915919379       -9.0893385125  MEMB      134             0.0000000000
     15381       134  SAPS      H9X            -1.0282287393       26.6511178461       -9.6503498716  MEMB      134             0.0000000000
     15382       134  SAPS      H9Y            -2.2587473423       26.3729228725       -8.3483214991  MEMB      134             0.0000000000
     15383       134  SAPS      C310           -1.1838695788       28.3039504653       -8.3933837620  MEMB      134             0.0000000000
     15384       134  SAPS      H10X           -1.9640364599       29.0798564779       -8.4528604203  MEMB      134             0.0000000000
     15385       134  SAPS      H10Y           -0.3232956396       28.6134145273       -9.0336220276  MEMB      134             0.0000000000
     15386       134  SAPS      C311           -0.7472569566       28.3950774890       -6.9033067584  MEMB      134             0.0000000000
     15387       134  SAPS      H11X           -0.4709936971       29.4828004877       -6.8270851651  MEMB      134             0.0000000000
     15388       134  SAPS      H11Y            0.1913991954       27.8433457493       -6.6926877340  MEMB      134             0.0000000000
     15389       134  SAPS      C312           -1.7863317256       28.1913396002       -5.7633585719  MEMB      134             0.0000000000
     15390       134  SAPS      H12X           -1.6129998130       29.0110127583       -5.0259584512  MEMB      134             0.0000000000
     15391       134  SAPS      H12Y           -1.5898668168       27.2712348355       -5.1853583932  MEMB      134             0.0000000000
     15392       134  SAPS      C313           -3.2627905703       28.2413189580       -6.1866081031  MEMB      134             0.0000000000
     15393       134  SAPS      H13X           -3.3954610552       27.8996445972       -7.2278945862  MEMB      134             0.0000000000
     15394       134  SAPS      H13Y           -3.5798675642       29.2916146055       -6.1101159912  MEMB      134             0.0000000000
     15395       134  SAPS      C314           -4.2986219463       27.4944752758       -5.3517422270  MEMB      134             0.0000000000
     15396       134  SAPS      H14X           -4.1093126653       26.4120127200       -5.4178779618  MEMB      134             0.0000000000
     15397       134  SAPS      H14Y           -5.3029759830       27.7108260591       -5.7880503059  MEMB      134             0.0000000000
     15398       134  SAPS      C315           -4.3165617764       27.9540041786       -3.9066302179  MEMB      134             0.0000000000
     15399       134  SAPS      H15X           -4.1547834447       29.0458760076       -3.9267962768  MEMB      134             0.0000000000
     15400       134  SAPS      H15Y           -3.4574951377       27.4915401827       -3.3737096078  MEMB      134             0.0000000000
     15401       134  SAPS      C316           -5.6457175141       27.7112723587       -3.1862538914  MEMB      134             0.0000000000
     15402       134  SAPS      H16X           -6.1739452272       26.9031827968       -3.7309874061  MEMB      134             0.0000000000
     15403       134  SAPS      H16Y           -6.2886376947       28.6158813568       -3.2480674730  MEMB      134             0.0000000000
     15404       134  SAPS      C317           -5.4298847612       27.3636257368       -1.7082925851  MEMB      134             0.0000000000
     15405       134  SAPS      H17X           -4.6384562661       28.0051538915       -1.3003474449  MEMB      134             0.0000000000
     15406       134  SAPS      H17Y           -5.0173794384       26.3410218007       -1.6858729151  MEMB      134             0.0000000000
     15407       134  SAPS      C318           -6.6583347332       27.4722484949       -0.8069827868  MEMB      134             0.0000000000
     15408       134  SAPS      H18X           -6.4305942938       27.5240635726        0.2795289252  MEMB      134             0.0000000000
     15409       134  SAPS      H18Y           -7.2408403265       26.5459432039       -0.9484576634  MEMB      134             0.0000000000
     15410       134  SAPS      H18Z           -7.2724372008       28.3601084943       -1.0818838803  MEMB      134             0.0000000000
     15411       135  SOPE      N             -14.0113391735       19.3429999469      -21.3767491005  MEMB      135             0.0000000000
     15412       135  SOPE      HN1           -14.5519481378       18.5397351135      -20.9961439990  MEMB      135             0.0000000000
     15413       135  SOPE      HN2           -13.4755914897       19.0639144740      -22.2320896683  MEMB      135             0.0000000000
     15414       135  SOPE      HN3           -13.3276521596       19.6986126536      -20.6720732217  MEMB      135             0.0000000000
     15415       135  SOPE      C12           -15.0145172592       20.4032125688      -21.7487309430  MEMB      135             0.0000000000
     15416       135  SOPE      H12A          -15.5737324681       20.0261790475      -22.6308130845  MEMB      135             0.0000000000
     15417       135  SOPE      H12B          -14.4509558494       21.3137103914      -22.0330287367  MEMB      135             0.0000000000
     15418       135  SOPE      C11           -16.0031063403       20.6715802160      -20.5985285680  MEMB      135             0.0000000000
     15419       135  SOPE      H11A          -16.7435388440       21.4401213479      -20.9215025728  MEMB      135             0.0000000000
     15420       135  SOPE      H11B          -15.4469069604       21.1245281175      -19.7446614232  MEMB      135             0.0000000000
     15421       135  SOPE      P             -17.9907115876       18.9015777833      -20.7940116182  MEMB      135             0.0000000000
     15422       135  SOPE      O13           -18.1509323201       17.4901060021      -20.3950861057  MEMB      135             0.0000000000
     15423       135  SOPE      O14           -17.9662239113       19.0957003771      -22.2572661431  MEMB      135             0.0000000000
     15424       135  SOPE      O12           -16.6304167337       19.4611196273      -20.1691662712  MEMB      135             0.0000000000
     15425       135  SOPE      O11           -19.1082882463       19.8143331108      -20.1660784752  MEMB      135             0.0000000000
     15426       135  SOPE      C1            -20.0368819805       19.2417882107      -19.2461977088  MEMB      135             0.0000000000
     15427       135  SOPE      HA            -20.2740396212       18.1781183831      -19.4823609326  MEMB      135             0.0000000000
     15428       135  SOPE      HB            -20.9895816192       19.7908656474      -19.3491262602  MEMB      135             0.0000000000
     15429       135  SOPE      C2            -19.5897186616       19.3757802589      -17.7613679544  MEMB      135             0.0000000000
     15430       135  SOPE      HS            -19.8485187605       20.4264511792      -17.4833462959  MEMB      135             0.0000000000
     15431       135  SOPE      O21           -18.1889826949       19.1040870237      -17.6114215548  MEMB      135             0.0000000000
     15432       135  SOPE      C21           -17.5211783867       19.9170208432      -16.8213424384  MEMB      135             0.0000000000
     15433       135  SOPE      O22           -17.9538291251       20.9279041155      -16.2945718564  MEMB      135             0.0000000000
     15434       135  SOPE      C22           -16.1170831540       19.3306324481      -16.5719742882  MEMB      135             0.0000000000
     15435       135  SOPE      H2R           -15.3611136825       20.0721129778      -16.8962100636  MEMB      135             0.0000000000
     15436       135  SOPE      H2S           -16.0099705548       18.4369059805      -17.2183962175  MEMB      135             0.0000000000
     15437       135  SOPE      C3            -20.3804079181       18.3670722184      -16.8753802600  MEMB      135             0.0000000000
     15438       135  SOPE      HX            -19.9532946686       17.3631461181      -17.0955024758  MEMB      135             0.0000000000
     15439       135  SOPE      HY            -21.4473587870       18.3411418235      -17.1956613764  MEMB      135             0.0000000000
     15440       135  SOPE      O31           -20.2570549477       18.6262065761      -15.4584224655  MEMB      135             0.0000000000
     15441       135  SOPE      C31           -20.9804418742       19.6854236989      -15.0696289966  MEMB      135             0.0000000000
     15442       135  SOPE      O32           -21.7455960645       20.2943569938      -15.7920457692  MEMB      135             0.0000000000
     15443       135  SOPE      C32           -20.6494652677       20.0435668314      -13.6250343535  MEMB      135             0.0000000000
     15444       135  SOPE      H2X           -19.5721678969       20.3188245825      -13.6130377622  MEMB      135             0.0000000000
     15445       135  SOPE      H2Y           -20.7975338002       19.1522521455      -12.9932553302  MEMB      135             0.0000000000
     15446       135  SOPE      C23           -15.8749212087       18.9331890511      -15.0907970319  MEMB      135             0.0000000000
     15447       135  SOPE      H3R           -15.4382958152       19.7862249035      -14.5486808314  MEMB      135             0.0000000000
     15448       135  SOPE      H3S           -15.1154125701       18.1234954521      -15.0395991538  MEMB      135             0.0000000000
     15449       135  SOPE      C24           -17.1417882521       18.5196558266      -14.3341455758  MEMB      135             0.0000000000
     15450       135  SOPE      H4R           -17.8840356554       19.3445013665      -14.3709772422  MEMB      135             0.0000000000
     15451       135  SOPE      H4S           -17.5995368305       17.6369568537      -14.8313992011  MEMB      135             0.0000000000
     15452       135  SOPE      C25           -16.8873609776       18.2494396320      -12.8508536300  MEMB      135             0.0000000000
     15453       135  SOPE      H5R           -16.1395731285       17.4371537842      -12.7536583860  MEMB      135             0.0000000000
     15454       135  SOPE      H5S           -16.4407300210       19.1503310097      -12.3747977637  MEMB      135             0.0000000000
     15455       135  SOPE      C26           -18.1860295400       17.8794318161      -12.1235541246  MEMB      135             0.0000000000
     15456       135  SOPE      H6R           -18.7698963839       18.8113452172      -11.9562646875  MEMB      135             0.0000000000
     15457       135  SOPE      H6S           -18.7987435255       17.2214170463      -12.7807417298  MEMB      135             0.0000000000
     15458       135  SOPE      C27           -17.9864933837       17.1603984672      -10.7817423765  MEMB      135             0.0000000000
     15459       135  SOPE      H7R           -18.9664938561       17.1423948937      -10.2592099498  MEMB      135             0.0000000000
     15460       135  SOPE      H7S           -17.6900265334       16.1042286948      -10.9442936405  MEMB      135             0.0000000000
     15461       135  SOPE      C28           -16.9406920389       17.7888686811       -9.8633364228  MEMB      135             0.0000000000
     15462       135  SOPE      H8R           -16.7662299156       17.1229831678       -8.9887678752  MEMB      135             0.0000000000
     15463       135  SOPE      H8S           -15.9650614248       17.8891114374      -10.3884008792  MEMB      135             0.0000000000
     15464       135  SOPE      C29           -17.4489695289       19.1203306989       -9.4161942773  MEMB      135             0.0000000000
     15465       135  SOPE      H91           -16.9956058849       19.9750768623       -9.9423833982  MEMB      135             0.0000000000
     15466       135  SOPE      C210          -18.4028398653       19.3427595578       -8.4963530725  MEMB      135             0.0000000000
     15467       135  SOPE      H101          -18.6440219027       20.3838955027       -8.2282342809  MEMB      135             0.0000000000
     15468       135  SOPE      C211          -19.1688718864       18.3022218145       -7.7190934668  MEMB      135             0.0000000000
     15469       135  SOPE      H11R          -19.0531265186       17.2806698045       -8.1427413328  MEMB      135             0.0000000000
     15470       135  SOPE      H11S          -20.2453784284       18.5562074272       -7.8002575282  MEMB      135             0.0000000000
     15471       135  SOPE      C212          -18.7406994470       18.2512110597       -6.2391337875  MEMB      135             0.0000000000
     15472       135  SOPE      H12R          -18.6091074904       19.2923628864       -5.8615551765  MEMB      135             0.0000000000
     15473       135  SOPE      H12S          -17.7517223572       17.7433465588       -6.1693718132  MEMB      135             0.0000000000
     15474       135  SOPE      C213          -19.7464080847       17.5528054512       -5.3018748077  MEMB      135             0.0000000000
     15475       135  SOPE      H13R          -19.3948916384       17.7110177655       -4.2565544401  MEMB      135             0.0000000000
     15476       135  SOPE      H13S          -19.7589378002       16.4568159882       -5.4915766824  MEMB      135             0.0000000000
     15477       135  SOPE      C214          -21.1733607387       18.1100931171       -5.4328764995  MEMB      135             0.0000000000
     15478       135  SOPE      H14R          -21.6313322498       17.7145146051       -6.3631457410  MEMB      135             0.0000000000
     15479       135  SOPE      H14S          -21.0976709260       19.2174890143       -5.5283719877  MEMB      135             0.0000000000
     15480       135  SOPE      C215          -22.0939562001       17.8197395723       -4.2408386257  MEMB      135             0.0000000000
     15481       135  SOPE      H15R          -22.8289502871       18.6503949128       -4.1335266915  MEMB      135             0.0000000000
     15482       135  SOPE      H15S          -21.4816026189       17.7969903345       -3.3137509267  MEMB      135             0.0000000000
     15483       135  SOPE      C216          -22.8990133120       16.5269081352       -4.3802195963  MEMB      135             0.0000000000
     15484       135  SOPE      H16R          -22.2006660525       15.6941226987       -4.5602814486  MEMB      135             0.0000000000
     15485       135  SOPE      H16S          -23.5664051257       16.5679869260       -5.2649800932  MEMB      135             0.0000000000
     15486       135  SOPE      C217          -23.7406984914       16.2243892061       -3.1404133491  MEMB      135             0.0000000000
     15487       135  SOPE      H17R          -24.3231040534       15.2927952792       -3.3259017974  MEMB      135             0.0000000000
     15488       135  SOPE      H17S          -24.4715811699       17.0541095185       -3.0016020881  MEMB      135             0.0000000000
     15489       135  SOPE      C218          -22.9146106373       16.0631651897       -1.8628654111  MEMB      135             0.0000000000
     15490       135  SOPE      H18R          -22.8386904173       17.0255742272       -1.3210255378  MEMB      135             0.0000000000
     15491       135  SOPE      H18S          -21.8847521831       15.7224906456       -2.0944048194  MEMB      135             0.0000000000
     15492       135  SOPE      H18T          -23.3849907082       15.3202432610       -1.1831435480  MEMB      135             0.0000000000
     15493       135  SOPE      C33           -21.4196549699       21.2751170454      -13.0949494205  MEMB      135             0.0000000000
     15494       135  SOPE      H3X           -21.6445482226       21.9491454020      -13.9500677110  MEMB      135             0.0000000000
     15495       135  SOPE      H3Y           -20.7378273407       21.8244214340      -12.4109673105  MEMB      135             0.0000000000
     15496       135  SOPE      C34           -22.7280270670       21.0136512941      -12.3328984198  MEMB      135             0.0000000000
     15497       135  SOPE      H4X           -23.4815804257       20.6205927254      -13.0561580848  MEMB      135             0.0000000000
     15498       135  SOPE      H4Y           -23.1325829583       21.9816657620      -11.9568007811  MEMB      135             0.0000000000
     15499       135  SOPE      C35           -22.6386791237       20.0300233660      -11.1542098087  MEMB      135             0.0000000000
     15500       135  SOPE      H5X           -22.3675744854       19.0305248224      -11.5584527135  MEMB      135             0.0000000000
     15501       135  SOPE      H5Y           -23.6639248611       19.9230585849      -10.7372742948  MEMB      135             0.0000000000
     15502       135  SOPE      C36           -21.6614445701       20.4032401387      -10.0210213690  MEMB      135             0.0000000000
     15503       135  SOPE      H6X           -20.6584831747       20.6561689071      -10.4257531900  MEMB      135             0.0000000000
     15504       135  SOPE      H6Y           -21.5441621798       19.4922350001       -9.3906066841  MEMB      135             0.0000000000
     15505       135  SOPE      C37           -22.1688477863       21.5244701446       -9.0990668396  MEMB      135             0.0000000000
     15506       135  SOPE      H7X           -23.2709734415       21.4424686863       -9.0425670149  MEMB      135             0.0000000000
     15507       135  SOPE      H7Y           -22.0016407144       22.5116912922       -9.5557334546  MEMB      135             0.0000000000
     15508       135  SOPE      C38           -21.5340779077       21.5010583593       -7.6896495437  MEMB      135             0.0000000000
     15509       135  SOPE      H8X           -20.4274432960       21.5165331388       -7.7815427848  MEMB      135             0.0000000000
     15510       135  SOPE      H8Y           -21.7940199352       20.5569200935       -7.1754775048  MEMB      135             0.0000000000
     15511       135  SOPE      C39           -21.9810644556       22.6720682580       -6.7935205355  MEMB      135             0.0000000000
     15512       135  SOPE      H9X           -23.0843207614       22.7875797898       -6.8094363029  MEMB      135             0.0000000000
     15513       135  SOPE      H9Y           -21.6179326079       23.6019554178       -7.2455985161  MEMB      135             0.0000000000
     15514       135  SOPE      C310          -21.5122224066       22.5560235251       -5.3283566009  MEMB      135             0.0000000000
     15515       135  SOPE      H10X          -21.3626936029       23.5766855885       -4.9078891827  MEMB      135             0.0000000000
     15516       135  SOPE      H10Y          -20.5414992822       22.0186162002       -5.2754979928  MEMB      135             0.0000000000
     15517       135  SOPE      C311          -22.5941123724       21.8476234735       -4.5065900285  MEMB      135             0.0000000000
     15518       135  SOPE      H11X          -22.7551923631       20.8384471483       -4.9463298687  MEMB      135             0.0000000000
     15519       135  SOPE      H11Y          -23.5208008127       22.4526753624       -4.6425406924  MEMB      135             0.0000000000
     15520       135  SOPE      C312          -22.4096706445       21.7081359654       -2.9907829811  MEMB      135             0.0000000000
     15521       135  SOPE      H12X          -23.3023556307       21.1586876874       -2.6052354476  MEMB      135             0.0000000000
     15522       135  SOPE      H12Y          -22.4112253969       22.7182708363       -2.5251006444  MEMB      135             0.0000000000
     15523       135  SOPE      C313          -21.1592401147       20.9471473752       -2.5419214318  MEMB      135             0.0000000000
     15524       135  SOPE      H13X          -20.2663304423       21.5445485516       -2.8331654890  MEMB      135             0.0000000000
     15525       135  SOPE      H13Y          -21.0817855594       19.9711113549       -3.0620922108  MEMB      135             0.0000000000
     15526       135  SOPE      C314          -21.1514618614       20.7166835039       -1.0195530826  MEMB      135             0.0000000000
     15527       135  SOPE      H14X          -21.6854012140       21.5515822345       -0.5149675492  MEMB      135             0.0000000000
     15528       135  SOPE      H14Y          -20.0919647943       20.7408007015       -0.6799856353  MEMB      135             0.0000000000
     15529       135  SOPE      C315          -21.7441110525       19.3583616529       -0.5909333417  MEMB      135             0.0000000000
     15530       135  SOPE      H15X          -21.1231857410       18.5760614842       -1.0844159655  MEMB      135             0.0000000000
     15531       135  SOPE      H15Y          -22.7847024336       19.2541707402       -0.9631349980  MEMB      135             0.0000000000
     15532       135  SOPE      C316          -21.7108679434       19.1200868354        0.9322750300  MEMB      135             0.0000000000
     15533       135  SOPE      H16X          -22.6378342800       19.4534839060        1.4369943660  MEMB      135             0.0000000000
     15534       135  SOPE      H16Y          -20.9023008942       19.7911728679        1.3118017866  MEMB      135             0.0000000000
     15535       135  SOPE      C317          -21.2779588739       17.6980998738        1.3598740249  MEMB      135             0.0000000000
     15536       135  SOPE      H17X          -20.6176822193       17.8692902812        2.2446174685  MEMB      135             0.0000000000
     15537       135  SOPE      H17Y          -20.6577393307       17.2651497866        0.5465988789  MEMB      135             0.0000000000
     15538       135  SOPE      C318          -22.2994582117       16.6330019398        1.7890833111  MEMB      135             0.0000000000
     15539       135  SOPE      H18X          -21.8039109324       15.8848825840        2.4497519166  MEMB      135             0.0000000000
     15540       135  SOPE      H18Y          -22.6947007901       16.0550382246        0.9254603461  MEMB      135             0.0000000000
     15541       135  SOPE      H18Z          -23.1328956406       17.0900712250        2.3584527841  MEMB      135             0.0000000000
     15542       136  CHL1      C3             -8.4874684169      -24.7621232662      -17.5781431905  MEMB      136             0.0000000000
     15543       136  CHL1      H3             -7.4644963149      -24.4066279302      -17.3032378832  MEMB      136             0.0000000000
     15544       136  CHL1      O3             -8.5711892197      -24.8916824348      -18.9822646616  MEMB      136             0.0000000000
     15545       136  CHL1      H3'            -7.8629935710      -25.5434823688      -19.1820668651  MEMB      136             0.0000000000
     15546       136  CHL1      C4             -8.7412424819      -26.1516603411      -16.9905325851  MEMB      136             0.0000000000
     15547       136  CHL1      H4A            -9.7275022411      -26.5131335217      -17.3496284129  MEMB      136             0.0000000000
     15548       136  CHL1      H4B            -7.9807998413      -26.8487016877      -17.4074156823  MEMB      136             0.0000000000
     15549       136  CHL1      C5             -8.7083694921      -26.1303953532      -15.4838135832  MEMB      136             0.0000000000
     15550       136  CHL1      C6             -7.8574991880      -26.9094403851      -14.8026948180  MEMB      136             0.0000000000
     15551       136  CHL1      H6             -7.1874534295      -27.5858155633      -15.3545234774  MEMB      136             0.0000000000
     15552       136  CHL1      C7             -7.8049220698      -26.9628540005      -13.3056666893  MEMB      136             0.0000000000
     15553       136  CHL1      H7A            -7.7753512911      -28.0147701777      -12.9505924768  MEMB      136             0.0000000000
     15554       136  CHL1      H7B            -6.8705211231      -26.4654541630      -12.9657316241  MEMB      136             0.0000000000
     15555       136  CHL1      C8             -9.0076861157      -26.2529505203      -12.6237346042  MEMB      136             0.0000000000
     15556       136  CHL1      H8             -9.8919836801      -26.9255877374      -12.6757628919  MEMB      136             0.0000000000
     15557       136  CHL1      C14            -8.6584763478      -25.9614871358      -11.1730972184  MEMB      136             0.0000000000
     15558       136  CHL1      H14            -7.7938925046      -25.2478770196      -11.2153160106  MEMB      136             0.0000000000
     15559       136  CHL1      C15            -8.1604251512      -27.1343734938      -10.3069275410  MEMB      136             0.0000000000
     15560       136  CHL1      H15A           -8.8018234386      -28.0254726003      -10.4781474796  MEMB      136             0.0000000000
     15561       136  CHL1      H15B           -7.1092952609      -27.3973995500      -10.5386373429  MEMB      136             0.0000000000
     15562       136  CHL1      C16            -8.3347111277      -26.6165786702       -8.8701757827  MEMB      136             0.0000000000
     15563       136  CHL1      H16A           -8.9922063087      -27.3190755630       -8.3145610015  MEMB      136             0.0000000000
     15564       136  CHL1      H16B           -7.3671957122      -26.5332680619       -8.3384427645  MEMB      136             0.0000000000
     15565       136  CHL1      C17            -9.0265904411      -25.2190007941       -8.9799344134  MEMB      136             0.0000000000
     15566       136  CHL1      H17            -8.2075381527      -24.4659193080       -9.0722597332  MEMB      136             0.0000000000
     15567       136  CHL1      C13            -9.7316770686      -25.2422154405      -10.3600267967  MEMB      136             0.0000000000
     15568       136  CHL1      C18           -11.0062906610      -26.1196005530      -10.2551194061  MEMB      136             0.0000000000
     15569       136  CHL1      H18A          -11.5083907559      -26.2302188775      -11.2353012555  MEMB      136             0.0000000000
     15570       136  CHL1      H18B          -10.7837009418      -27.1366396406       -9.8791206920  MEMB      136             0.0000000000
     15571       136  CHL1      H18C          -11.7270990994      -25.6568478834       -9.5574751908  MEMB      136             0.0000000000
     15572       136  CHL1      C12           -10.0086677909      -23.8931990393      -11.0638413045  MEMB      136             0.0000000000
     15573       136  CHL1      H12A          -10.8337580982      -23.3332257428      -10.5876106040  MEMB      136             0.0000000000
     15574       136  CHL1      H12B           -9.0913277925      -23.2657932145      -11.0161805557  MEMB      136             0.0000000000
     15575       136  CHL1      C11           -10.3904446378      -24.0961279486      -12.5420882972  MEMB      136             0.0000000000
     15576       136  CHL1      H11A          -11.3823986406      -24.5902648642      -12.5807745963  MEMB      136             0.0000000000
     15577       136  CHL1      H11B          -10.4958523784      -23.1004199456      -13.0177342835  MEMB      136             0.0000000000
     15578       136  CHL1      C9             -9.3390586585      -24.9316804565      -13.3233904270  MEMB      136             0.0000000000
     15579       136  CHL1      H9             -8.3932760169      -24.3344440941      -13.2671296198  MEMB      136             0.0000000000
     15580       136  CHL1      C10            -9.6401985101      -25.0934630314      -14.8335099916  MEMB      136             0.0000000000
     15581       136  CHL1      C19           -11.1024933813      -25.5752280090      -15.0213111901  MEMB      136             0.0000000000
     15582       136  CHL1      H19A          -11.3360241748      -25.7638688011      -16.0882765056  MEMB      136             0.0000000000
     15583       136  CHL1      H19B          -11.2832993868      -26.5115019485      -14.4530559049  MEMB      136             0.0000000000
     15584       136  CHL1      H19C          -11.8163672986      -24.8031691202      -14.6699478520  MEMB      136             0.0000000000
     15585       136  CHL1      C1             -9.4406325139      -23.7121254068      -15.5266109772  MEMB      136             0.0000000000
     15586       136  CHL1      H1A           -10.2158264881      -23.0155372919      -15.1590828045  MEMB      136             0.0000000000
     15587       136  CHL1      H1B            -8.4438308612      -23.3070406957      -15.2332305405  MEMB      136             0.0000000000
     15588       136  CHL1      C2             -9.5114229053      -23.7504824015      -17.0617536200  MEMB      136             0.0000000000
     15589       136  CHL1      H2A            -9.3085514081      -22.7384967452      -17.4786996430  MEMB      136             0.0000000000
     15590       136  CHL1      H2B           -10.5315376246      -24.0495951533      -17.3847547544  MEMB      136             0.0000000000
     15591       136  CHL1      C20            -9.8187075660      -24.8616711726       -7.7120911979  MEMB      136             0.0000000000
     15592       136  CHL1      H20           -10.5928962460      -25.6458196910       -7.5427701384  MEMB      136             0.0000000000
     15593       136  CHL1      C21           -10.5420640817      -23.5138489350       -7.8987351633  MEMB      136             0.0000000000
     15594       136  CHL1      H21A           -9.8167341551      -22.7134826456       -8.1508589689  MEMB      136             0.0000000000
     15595       136  CHL1      H21B          -11.0965097956      -23.2107636685       -6.9915454918  MEMB      136             0.0000000000
     15596       136  CHL1      H21C          -11.3119433094      -23.5911542935       -8.6869416544  MEMB      136             0.0000000000
     15597       136  CHL1      C22            -8.9205098424      -24.8244604634       -6.4398714255  MEMB      136             0.0000000000
     15598       136  CHL1      H22A           -8.4399529236      -25.8158661657       -6.2911481585  MEMB      136             0.0000000000
     15599       136  CHL1      H22B           -8.1132000164      -24.0729144082       -6.5807814691  MEMB      136             0.0000000000
     15600       136  CHL1      C23            -9.7089014229      -24.4814231786       -5.1639639652  MEMB      136             0.0000000000
     15601       136  CHL1      H23A          -10.1743694024      -23.4774511091       -5.2656976160  MEMB      136             0.0000000000
     15602       136  CHL1      H23B          -10.5238600597      -25.2310927671       -5.0494496521  MEMB      136             0.0000000000
     15603       136  CHL1      C24            -8.8900183024      -24.4162409225       -3.8696715168  MEMB      136             0.0000000000
     15604       136  CHL1      H24A           -8.6121939834      -25.4436261761       -3.5482289703  MEMB      136             0.0000000000
     15605       136  CHL1      H24B           -7.9510429543      -23.8481881354       -4.0468669311  MEMB      136             0.0000000000
     15606       136  CHL1      C25            -9.6747876448      -23.7105181898       -2.7417885288  MEMB      136             0.0000000000
     15607       136  CHL1      H25            -9.8454665862      -22.6487286021       -3.0440594287  MEMB      136             0.0000000000
     15608       136  CHL1      C26           -11.0519036300      -24.3539045900       -2.5256800853  MEMB      136             0.0000000000
     15609       136  CHL1      H26A          -11.7065601387      -24.1679610203       -3.3998583362  MEMB      136             0.0000000000
     15610       136  CHL1      H26B          -10.9526871319      -25.4526712732       -2.4077995151  MEMB      136             0.0000000000
     15611       136  CHL1      H26C          -11.5547112399      -23.9329009381       -1.6301047260  MEMB      136             0.0000000000
     15612       136  CHL1      C27            -8.8594930635      -23.7006190202       -1.4470819866  MEMB      136             0.0000000000
     15613       136  CHL1      H27A           -8.5887554456      -24.7417697262       -1.1746055103  MEMB      136             0.0000000000
     15614       136  CHL1      H27B           -7.9194088801      -23.1257145806       -1.5845462928  MEMB      136             0.0000000000
     15615       136  CHL1      H27C           -9.4340359225      -23.2564002464       -0.6082879117  MEMB      136             0.0000000000
     15616       137  CHL1      C3             21.9005006818      -14.6892862939      -17.4355764886  MEMB      137             0.0000000000
     15617       137  CHL1      H3             22.6905255271      -15.4666820678      -17.5483980545  MEMB      137             0.0000000000
     15618       137  CHL1      O3             21.4660708651      -14.2984248728      -18.7292095355  MEMB      137             0.0000000000
     15619       137  CHL1      H3'            20.5758447224      -14.6655520190      -18.8210725814  MEMB      137             0.0000000000
     15620       137  CHL1      C4             20.7115259890      -15.2517787037      -16.6481204215  MEMB      137             0.0000000000
     15621       137  CHL1      H4A            19.9186912164      -14.4722491620      -16.6022981684  MEMB      137             0.0000000000
     15622       137  CHL1      H4B            20.2853128196      -16.1110589061      -17.2128859220  MEMB      137             0.0000000000
     15623       137  CHL1      C5             21.1467845613      -15.6460331559      -15.2533824261  MEMB      137             0.0000000000
     15624       137  CHL1      C6             21.0114527031      -16.9054558672      -14.8160956500  MEMB      137             0.0000000000
     15625       137  CHL1      H6             20.5334355645      -17.6652672078      -15.4535630978  MEMB      137             0.0000000000
     15626       137  CHL1      C7             21.3616417379      -17.3153472522      -13.4204800815  MEMB      137             0.0000000000
     15627       137  CHL1      H7A            20.6195145903      -18.0348720950      -13.0316873928  MEMB      137             0.0000000000
     15628       137  CHL1      H7B            22.3486105659      -17.8192707729      -13.4198350997  MEMB      137             0.0000000000
     15629       137  CHL1      C8             21.4583417183      -16.0934444167      -12.4741179226  MEMB      137             0.0000000000
     15630       137  CHL1      H8             20.4393064084      -15.6614113901      -12.3719089146  MEMB      137             0.0000000000
     15631       137  CHL1      C14            21.9188366415      -16.5203542741      -11.0995154164  MEMB      137             0.0000000000
     15632       137  CHL1      H14            22.9216178593      -16.9984352200      -11.2343380708  MEMB      137             0.0000000000
     15633       137  CHL1      C15            21.0480249474      -17.5666386923      -10.3815851423  MEMB      137             0.0000000000
     15634       137  CHL1      H15A           19.9744781514      -17.3266721596      -10.5305842674  MEMB      137             0.0000000000
     15635       137  CHL1      H15B           21.2478832582      -18.5938552682      -10.7462724861  MEMB      137             0.0000000000
     15636       137  CHL1      C16            21.4074139502      -17.3865243488       -8.9064207660  MEMB      137             0.0000000000
     15637       137  CHL1      H16A           20.4737919708      -17.1427544631       -8.3524971178  MEMB      137             0.0000000000
     15638       137  CHL1      H16B           21.8591879862      -18.3030551305       -8.4783865635  MEMB      137             0.0000000000
     15639       137  CHL1      C17            22.4058340282      -16.1858289702       -8.8384051371  MEMB      137             0.0000000000
     15640       137  CHL1      H17            23.4242576194      -16.6282739773       -8.9559991634  MEMB      137             0.0000000000
     15641       137  CHL1      C13            22.1353879492      -15.3738428222      -10.1161332779  MEMB      137             0.0000000000
     15642       137  CHL1      C18            20.8323429911      -14.5553139274       -9.9005137423  MEMB      137             0.0000000000
     15643       137  CHL1      H18A           21.0338473938      -13.6851465852       -9.2415787952  MEMB      137             0.0000000000
     15644       137  CHL1      H18B           20.4409275069      -14.1585369839      -10.8568614196  MEMB      137             0.0000000000
     15645       137  CHL1      H18C           20.0327543832      -15.1679424440       -9.4392339506  MEMB      137             0.0000000000
     15646       137  CHL1      C12            23.2720891422      -14.5083094513      -10.6961736630  MEMB      137             0.0000000000
     15647       137  CHL1      H12A           23.5039133004      -13.6397817799      -10.0519680568  MEMB      137             0.0000000000
     15648       137  CHL1      H12B           24.1928218217      -15.1224449815      -10.7999721226  MEMB      137             0.0000000000
     15649       137  CHL1      C11            22.8738387875      -13.9560358407      -12.0791413562  MEMB      137             0.0000000000
     15650       137  CHL1      H11A           22.0768549035      -13.2107378819      -11.8918240824  MEMB      137             0.0000000000
     15651       137  CHL1      H11B           23.7270513055      -13.3948052666      -12.5156480901  MEMB      137             0.0000000000
     15652       137  CHL1      C9             22.4028979747      -15.0536910922      -13.0833676596  MEMB      137             0.0000000000
     15653       137  CHL1      H9             23.3376678955      -15.6117447787      -13.3435514885  MEMB      137             0.0000000000
     15654       137  CHL1      C10            21.8156716896      -14.5259793347      -14.4192039862  MEMB      137             0.0000000000
     15655       137  CHL1      C19            20.7259845510      -13.4763466644      -14.0703238441  MEMB      137             0.0000000000
     15656       137  CHL1      H19A           19.9906001395      -13.8762145474      -13.3458328874  MEMB      137             0.0000000000
     15657       137  CHL1      H19B           21.1878489702      -12.5799720023      -13.6184358903  MEMB      137             0.0000000000
     15658       137  CHL1      H19C           20.1841677675      -13.1147136180      -14.9644549778  MEMB      137             0.0000000000
     15659       137  CHL1      C1             22.9505295914      -13.8928839284      -15.2753663872  MEMB      137             0.0000000000
     15660       137  CHL1      H1A            23.3534683423      -13.0004936898      -14.7559403368  MEMB      137             0.0000000000
     15661       137  CHL1      H1B            23.7931631192      -14.6140759759      -15.3680222976  MEMB      137             0.0000000000
     15662       137  CHL1      C2             22.5022777339      -13.4902795237      -16.6931671107  MEMB      137             0.0000000000
     15663       137  CHL1      H2A            23.3689521425      -13.1200818990      -17.2740529323  MEMB      137             0.0000000000
     15664       137  CHL1      H2B            21.7460501259      -12.6757325559      -16.6318619227  MEMB      137             0.0000000000
     15665       137  CHL1      C20            22.3739595788      -15.4798257022       -7.4833683506  MEMB      137             0.0000000000
     15666       137  CHL1      H20            21.4787533771      -14.8212386852       -7.4007496271  MEMB      137             0.0000000000
     15667       137  CHL1      C21            23.6245606750      -14.5941602901       -7.3349964882  MEMB      137             0.0000000000
     15668       137  CHL1      H21A           24.5577595874      -15.1933547544       -7.3718402761  MEMB      137             0.0000000000
     15669       137  CHL1      H21B           23.5716159299      -14.0626824431       -6.3744003743  MEMB      137             0.0000000000
     15670       137  CHL1      H21C           23.6601687918      -13.7968625468       -8.0962235824  MEMB      137             0.0000000000
     15671       137  CHL1      C22            22.2591437586      -16.5234212209       -6.3411029123  MEMB      137             0.0000000000
     15672       137  CHL1      H22A           21.2145449489      -16.9104351395       -6.3289991328  MEMB      137             0.0000000000
     15673       137  CHL1      H22B           22.9423608623      -17.3769620933       -6.5448162080  MEMB      137             0.0000000000
     15674       137  CHL1      C23            22.5544497749      -16.0168538512       -4.9289862990  MEMB      137             0.0000000000
     15675       137  CHL1      H23A           23.6446184338      -15.8270983438       -4.8247906366  MEMB      137             0.0000000000
     15676       137  CHL1      H23B           22.0061686920      -15.0636905090       -4.7597616493  MEMB      137             0.0000000000
     15677       137  CHL1      C24            22.1337597003      -17.0505076748       -3.8805051383  MEMB      137             0.0000000000
     15678       137  CHL1      H24A           21.0422209482      -17.2474576213       -3.9834236006  MEMB      137             0.0000000000
     15679       137  CHL1      H24B           22.6660589692      -18.0098360315       -4.0782294707  MEMB      137             0.0000000000
     15680       137  CHL1      C25            22.4207719068      -16.6039569443       -2.4375624084  MEMB      137             0.0000000000
     15681       137  CHL1      H25            23.5252773700      -16.4814558268       -2.3245860689  MEMB      137             0.0000000000
     15682       137  CHL1      C26            21.7516800732      -15.2665316650       -2.0886879043  MEMB      137             0.0000000000
     15683       137  CHL1      H26A           20.7629331612      -15.1854969331       -2.5852028129  MEMB      137             0.0000000000
     15684       137  CHL1      H26B           21.6083839760      -15.1664115513       -0.9929365701  MEMB      137             0.0000000000
     15685       137  CHL1      H26C           22.3781582153      -14.4227835977       -2.4317909533  MEMB      137             0.0000000000
     15686       137  CHL1      C27            21.9959842361      -17.6870861305       -1.4528675004  MEMB      137             0.0000000000
     15687       137  CHL1      H27A           21.5434717777      -18.5508260632       -1.9816799849  MEMB      137             0.0000000000
     15688       137  CHL1      H27B           22.8939393264      -18.0358574115       -0.8999327344  MEMB      137             0.0000000000
     15689       137  CHL1      H27C           21.2707420309      -17.3132712856       -0.7075776817  MEMB      137             0.0000000000
     15690       138  OSM       N              26.2101339651       -8.4095102308      -22.8466859167  MEMB      138             0.0000000000
     15691       138  OSM       C15            27.3501176274       -8.0773936014      -23.7372450772  MEMB      138             0.0000000000
     15692       138  OSM       H15A           27.1279575458       -7.1993369871      -24.3301762587  MEMB      138             0.0000000000
     15693       138  OSM       H15B           27.5746647592       -8.8995887365      -24.4108580569  MEMB      138             0.0000000000
     15694       138  OSM       H15C           28.2449345707       -7.8466069966      -23.1689981941  MEMB      138             0.0000000000
     15695       138  OSM       C14            24.9222093850       -8.3332261584      -23.6001157946  MEMB      138             0.0000000000
     15696       138  OSM       H14A           24.0804854158       -8.4615522639      -22.9131370896  MEMB      138             0.0000000000
     15697       138  OSM       H14B           24.8670793778       -9.1476066695      -24.3241470914  MEMB      138             0.0000000000
     15698       138  OSM       H14C           24.7928151751       -7.3997134816      -24.1231793971  MEMB      138             0.0000000000
     15699       138  OSM       C13            26.3336789882       -9.8370567021      -22.3919749408  MEMB      138             0.0000000000
     15700       138  OSM       H13A           27.2685167758      -10.0528716889      -21.9084705178  MEMB      138             0.0000000000
     15701       138  OSM       H13B           26.1536866696      -10.5412794148      -23.1956987547  MEMB      138             0.0000000000
     15702       138  OSM       H13C           25.5285876779      -10.0314960156      -21.6763267179  MEMB      138             0.0000000000
     15703       138  OSM       C12            26.1545356146       -7.4983921637      -21.6248509242  MEMB      138             0.0000000000
     15704       138  OSM       H12A           26.3478103537       -6.4675722973      -21.8918274394  MEMB      138             0.0000000000
     15705       138  OSM       H12B           26.9508434795       -7.7960382145      -20.9520528543  MEMB      138             0.0000000000
     15706       138  OSM       C11            24.8605231776       -7.5573261111      -20.7792762579  MEMB      138             0.0000000000
     15707       138  OSM       H11A           23.9961781946       -7.1759535130      -21.3712705747  MEMB      138             0.0000000000
     15708       138  OSM       H11B           24.9809697724       -6.8951625773      -19.8878342976  MEMB      138             0.0000000000
     15709       138  OSM       P              23.4217834669       -9.4402548811      -19.5943745410  MEMB      138             0.0000000000
     15710       138  OSM       O13            22.3478529671       -8.4385456612      -19.6900739831  MEMB      138             0.0000000000
     15711       138  OSM       O14            23.1018353587      -10.8047257014      -20.0338540041  MEMB      138             0.0000000000
     15712       138  OSM       O11            23.9957459633       -9.3667088393      -18.1539780279  MEMB      138             0.0000000000
     15713       138  OSM       O12            24.6551787001       -8.9033183608      -20.3960166367  MEMB      138             0.0000000000
     15714       138  OSM       C1S            23.8786518542      -10.4348141437      -17.2414928718  MEMB      138             0.0000000000
     15715       138  OSM       H1S            24.4006816973      -11.3423455334      -17.6306209797  MEMB      138             0.0000000000
     15716       138  OSM       H1T            22.8149375971      -10.6867803471      -17.0210233746  MEMB      138             0.0000000000
     15717       138  OSM       NF             23.8118274047       -9.2215862518      -15.0913023439  MEMB      138             0.0000000000
     15718       138  OSM       HNF            24.0128007263       -8.2508157671      -15.0713505266  MEMB      138             0.0000000000
     15719       138  OSM       C2S            24.6213713890       -9.9876500720      -15.9821312609  MEMB      138             0.0000000000
     15720       138  OSM       H2S            24.9373983246      -10.9216974069      -15.4560564768  MEMB      138             0.0000000000
     15721       138  OSM       C3S            25.8263288273       -9.0946612978      -16.3133447944  MEMB      138             0.0000000000
     15722       138  OSM       H3S            25.4238768370       -8.0758117902      -16.5433556986  MEMB      138             0.0000000000
     15723       138  OSM       O3             26.6193088678       -9.4605451535      -17.4339411308  MEMB      138             0.0000000000
     15724       138  OSM       HO3            25.9575020188       -9.4217761587      -18.1445957672  MEMB      138             0.0000000000
     15725       138  OSM       C4S            26.5446005088       -9.0134234350      -15.0162348652  MEMB      138             0.0000000000
     15726       138  OSM       H4S            26.2460825349       -9.8182905568      -14.3333003673  MEMB      138             0.0000000000
     15727       138  OSM       C5S            27.4690879750       -8.1760498703      -14.5774425299  MEMB      138             0.0000000000
     15728       138  OSM       H5S            27.8723810999       -7.3627559910      -15.2016977455  MEMB      138             0.0000000000
     15729       138  OSM       C6S            27.9977171438       -8.3409219137      -13.1983715154  MEMB      138             0.0000000000
     15730       138  OSM       H6S            28.3262688357       -7.3832990180      -12.7561306303  MEMB      138             0.0000000000
     15731       138  OSM       H6T            28.9512859694       -8.9020891584      -13.3015762659  MEMB      138             0.0000000000
     15732       138  OSM       C7S            27.1345340790       -9.1564953732      -12.1987491520  MEMB      138             0.0000000000
     15733       138  OSM       H7S            27.8288005443       -9.0945863042      -11.3803686081  MEMB      138             0.0000000000
     15734       138  OSM       H7T            27.0329613317      -10.2143824836      -12.4878016098  MEMB      138             0.0000000000
     15735       138  OSM       C8S            25.8420792400       -8.7949534790      -11.4442298626  MEMB      138             0.0000000000
     15736       138  OSM       H8S            25.1374733503       -9.6079939194      -11.7210313231  MEMB      138             0.0000000000
     15737       138  OSM       H8T            25.3905417837       -7.8269609263      -11.7042480387  MEMB      138             0.0000000000
     15738       138  OSM       C9S            26.0759738200       -8.9186988472       -9.9160330723  MEMB      138             0.0000000000
     15739       138  OSM       H9S            26.1524117077       -7.9200565113       -9.4348616260  MEMB      138             0.0000000000
     15740       138  OSM       H9T            27.0314976882       -9.4524504322       -9.7800314029  MEMB      138             0.0000000000
     15741       138  OSM       C10S           25.2592696478       -9.9022933888       -9.0722597645  MEMB      138             0.0000000000
     15742       138  OSM       H10S           24.8921822096      -10.7656106671       -9.6656408319  MEMB      138             0.0000000000
     15743       138  OSM       H10T           24.4111060221       -9.3458919407       -8.6895114961  MEMB      138             0.0000000000
     15744       138  OSM       C11S           26.0636362610      -10.3570830501       -7.8438801897  MEMB      138             0.0000000000
     15745       138  OSM       H11S           26.8822824539       -9.6126341866       -7.7009263622  MEMB      138             0.0000000000
     15746       138  OSM       H11T           26.5422627495      -11.3424583083       -8.0312027439  MEMB      138             0.0000000000
     15747       138  OSM       C12S           25.2958932694      -10.3559026107       -6.5200146932  MEMB      138             0.0000000000
     15748       138  OSM       H12S           24.9860580832      -11.3982809042       -6.2738881592  MEMB      138             0.0000000000
     15749       138  OSM       H12T           24.3735513920       -9.7508895343       -6.5538853388  MEMB      138             0.0000000000
     15750       138  OSM       C13S           26.1533044533       -9.7966652622       -5.3870521442  MEMB      138             0.0000000000
     15751       138  OSM       H13S           27.1628091726      -10.2641699867       -5.4295339652  MEMB      138             0.0000000000
     15752       138  OSM       H13T           25.6807977871      -10.1383077509       -4.4358397209  MEMB      138             0.0000000000
     15753       138  OSM       C14S           26.3111537409       -8.2547731439       -5.2928364106  MEMB      138             0.0000000000
     15754       138  OSM       H14S           25.3232960630       -7.7608791965       -5.3521789444  MEMB      138             0.0000000000
     15755       138  OSM       H14T           26.9349076737       -7.8608921052       -6.1163183834  MEMB      138             0.0000000000
     15756       138  OSM       C15S           26.9154734174       -8.0809214211       -3.8979469805  MEMB      138             0.0000000000
     15757       138  OSM       H15S           27.7621675034       -8.7912323482       -3.8294338754  MEMB      138             0.0000000000
     15758       138  OSM       H15T           26.1091223810       -8.4864565506       -3.2775092941  MEMB      138             0.0000000000
     15759       138  OSM       C16S           27.2514662775       -6.7863872156       -3.1417758461  MEMB      138             0.0000000000
     15760       138  OSM       H16S           26.3311492011       -6.2113655400       -2.9322950035  MEMB      138             0.0000000000
     15761       138  OSM       H16T           27.9195704631       -6.1338760943       -3.7334501878  MEMB      138             0.0000000000
     15762       138  OSM       C17S           27.9691884405       -7.2405868113       -1.8308541130  MEMB      138             0.0000000000
     15763       138  OSM       H17S           29.0401647535       -7.2154512559       -2.0665908633  MEMB      138             0.0000000000
     15764       138  OSM       H17T           27.7994678505       -8.3230042734       -1.6790955765  MEMB      138             0.0000000000
     15765       138  OSM       C18S           27.7675019929       -6.5511297031       -0.4653814183  MEMB      138             0.0000000000
     15766       138  OSM       H18S           28.5972167869       -6.7824522930        0.2365097723  MEMB      138             0.0000000000
     15767       138  OSM       H18T           26.8606844372       -6.9095328881        0.0458697011  MEMB      138             0.0000000000
     15768       138  OSM       H18U           27.7075320973       -5.4511099150       -0.5651784406  MEMB      138             0.0000000000
     15769       138  OSM       C1F            22.8124945361       -9.6582271294      -14.4021078727  MEMB      138             0.0000000000
     15770       138  OSM       OF             22.5897931094      -10.8318936347      -14.1967188370  MEMB      138             0.0000000000
     15771       138  OSM       C2F            21.9928179934       -8.5692967487      -13.8877657902  MEMB      138             0.0000000000
     15772       138  OSM       H2F            21.0352938993       -9.0303087853      -13.5584968035  MEMB      138             0.0000000000
     15773       138  OSM       H2G            21.8483279366       -7.8242005653      -14.6985522185  MEMB      138             0.0000000000
     15774       138  OSM       C3F            22.6439870011       -7.8950972068      -12.6937997463  MEMB      138             0.0000000000
     15775       138  OSM       H3F            22.0648521754       -6.9769182460      -12.4428813304  MEMB      138             0.0000000000
     15776       138  OSM       H3G            23.6892155374       -7.5841239547      -12.8974466938  MEMB      138             0.0000000000
     15777       138  OSM       C4F            22.5126687135       -8.8940889271      -11.5684083703  MEMB      138             0.0000000000
     15778       138  OSM       H4F            23.1927211128       -9.7654733111      -11.6744848401  MEMB      138             0.0000000000
     15779       138  OSM       H4G            21.4889062552       -9.3383367095      -11.6360312493  MEMB      138             0.0000000000
     15780       138  OSM       C5F            22.5814513733       -8.2978543859      -10.1922590478  MEMB      138             0.0000000000
     15781       138  OSM       H5F            21.9953548811       -7.3596115229      -10.1176966014  MEMB      138             0.0000000000
     15782       138  OSM       H5G            23.6218560521       -8.0307214855       -9.9249963594  MEMB      138             0.0000000000
     15783       138  OSM       C6F            21.9889045162       -9.3904141203       -9.3222935710  MEMB      138             0.0000000000
     15784       138  OSM       H6F            22.5426464986      -10.3438124781       -9.5031215748  MEMB      138             0.0000000000
     15785       138  OSM       H6G            20.9346279216       -9.5850337109       -9.6122163118  MEMB      138             0.0000000000
     15786       138  OSM       C7F            22.0441399186       -9.0469860518       -7.8663292425  MEMB      138             0.0000000000
     15787       138  OSM       H7F            21.4248986464       -8.1486864425       -7.6913380608  MEMB      138             0.0000000000
     15788       138  OSM       H7G            23.0474441685       -8.6805881740       -7.5778109168  MEMB      138             0.0000000000
     15789       138  OSM       C8F            21.6434024882      -10.2720254404       -7.0486239305  MEMB      138             0.0000000000
     15790       138  OSM       H8F            22.3687656616      -11.1047311900       -7.1925131500  MEMB      138             0.0000000000
     15791       138  OSM       H8G            20.6260222572      -10.6253718858       -7.3272221277  MEMB      138             0.0000000000
     15792       138  OSM       C9F            21.7083931869       -9.6890810044       -5.6864788447  MEMB      138             0.0000000000
     15793       138  OSM       H9F            21.9400990992       -8.6235961026       -5.6845639581  MEMB      138             0.0000000000
     15794       138  OSM       C10F           21.5624490696      -10.2554914039       -4.5112421072  MEMB      138             0.0000000000
     15795       138  OSM       H10F           21.5718555923       -9.5710632541       -3.6624680118  MEMB      138             0.0000000000
     15796       138  OSM       C11F           21.2766823265      -11.6808397637       -4.1880684541  MEMB      138             0.0000000000
     15797       138  OSM       H11F           22.0353493289      -12.0749481261       -3.4805701596  MEMB      138             0.0000000000
     15798       138  OSM       H11G           21.2730480711      -12.3367020770       -5.0896517447  MEMB      138             0.0000000000
     15799       138  OSM       C12F           19.8965764189      -11.6945497760       -3.5284439298  MEMB      138             0.0000000000
     15800       138  OSM       H12F           19.7381110829      -12.7138371563       -3.1141737563  MEMB      138             0.0000000000
     15801       138  OSM       H12G           19.1302277464      -11.5167440513       -4.3248761323  MEMB      138             0.0000000000
     15802       138  OSM       C13F           19.6301629362      -10.6489926035       -2.4215124745  MEMB      138             0.0000000000
     15803       138  OSM       H13F           18.7126835681      -10.9720140498       -1.8783607235  MEMB      138             0.0000000000
     15804       138  OSM       H13G           19.3859478931       -9.6755193038       -2.9065307340  MEMB      138             0.0000000000
     15805       138  OSM       C14F           20.7362122402      -10.3971015236       -1.3734221523  MEMB      138             0.0000000000
     15806       138  OSM       H14F           21.6975730540      -10.0571832776       -1.8081479312  MEMB      138             0.0000000000
     15807       138  OSM       H14G           20.9506408813      -11.3498972437       -0.8536297993  MEMB      138             0.0000000000
     15808       138  OSM       C15F           20.2328791316       -9.3338928859       -0.3854899582  MEMB      138             0.0000000000
     15809       138  OSM       H15F           19.2510971718       -9.7206529184       -0.0391696492  MEMB      138             0.0000000000
     15810       138  OSM       H15G           20.0705322183       -8.3704716201       -0.9225122575  MEMB      138             0.0000000000
     15811       138  OSM       C16F           21.1190719666       -9.0619094798        0.8353234554  MEMB      138             0.0000000000
     15812       138  OSM       H16F           21.8887571235       -8.3008173069        0.5749456304  MEMB      138             0.0000000000
     15813       138  OSM       H16G           21.6612469836       -9.9888900289        1.0740089774  MEMB      138             0.0000000000
     15814       138  OSM       C17F           20.3902478601       -8.6151959799        2.1231126722  MEMB      138             0.0000000000
     15815       138  OSM       H17F           20.9420129053       -7.7225764938        2.4770885613  MEMB      138             0.0000000000
     15816       138  OSM       H17G           20.5215198035       -9.3729173715        2.9294225139  MEMB      138             0.0000000000
     15817       138  OSM       C18F           18.9021853522       -8.2519822069        2.0232202900  MEMB      138             0.0000000000
     15818       138  OSM       H18F           18.5983070111       -7.9782376904        0.9929979264  MEMB      138             0.0000000000
     15819       138  OSM       H18G           18.6507318451       -7.3822917265        2.6606436348  MEMB      138             0.0000000000
     15820       138  OSM       H18H           18.2944656032       -9.1030402848        2.3788138523  MEMB      138             0.0000000000
     15821       139  SAPE      N              11.3178903182       21.0800457194      -19.5962275556  MEMB      139             0.0000000000
     15822       139  SAPE      HN1            12.2879579555       21.4570027572      -19.5510571384  MEMB      139             0.0000000000
     15823       139  SAPE      HN2            11.2028398827       20.1451676045      -19.1200042571  MEMB      139             0.0000000000
     15824       139  SAPE      HN3            11.0621806597       20.9407321563      -20.5929774088  MEMB      139             0.0000000000
     15825       139  SAPE      C12            10.3575672799       22.1073109025      -19.0615041854  MEMB      139             0.0000000000
     15826       139  SAPE      H12A           10.7928869033       22.5453404384      -18.1379612468  MEMB      139             0.0000000000
     15827       139  SAPE      H12B            9.4010272518       21.6041213973      -18.8172384023  MEMB      139             0.0000000000
     15828       139  SAPE      C11            10.1536205173       23.2077774920      -20.1067596442  MEMB      139             0.0000000000
     15829       139  SAPE      H11A            9.3602254850       23.8969879222      -19.7120819319  MEMB      139             0.0000000000
     15830       139  SAPE      H11B            9.7642545619       22.7900495873      -21.0667551111  MEMB      139             0.0000000000
     15831       139  SAPE      P              11.3639105556       25.4165213905      -20.6507321147  MEMB      139             0.0000000000
     15832       139  SAPE      O13            12.7353910875       25.9063615072      -20.9396747131  MEMB      139             0.0000000000
     15833       139  SAPE      O14            10.3322855976       25.6562299089      -21.6689731710  MEMB      139             0.0000000000
     15834       139  SAPE      O12            11.4121006786       23.8597034492      -20.3319148334  MEMB      139             0.0000000000
     15835       139  SAPE      O11            10.9104566122       26.0184218854      -19.2580401025  MEMB      139             0.0000000000
     15836       139  SAPE      C1             11.6249141945       27.1038599049      -18.6653274683  MEMB      139             0.0000000000
     15837       139  SAPE      HA             12.6814592032       27.1806484091      -19.0091117607  MEMB      139             0.0000000000
     15838       139  SAPE      HB             11.1214097153       28.0705602169      -18.9062663505  MEMB      139             0.0000000000
     15839       139  SAPE      C2             11.7144812997       26.9609305066      -17.1265440009  MEMB      139             0.0000000000
     15840       139  SAPE      HS             12.1977803512       27.9148935894      -16.7914216871  MEMB      139             0.0000000000
     15841       139  SAPE      O21            12.4981767018       25.7921878352      -16.7707326756  MEMB      139             0.0000000000
     15842       139  SAPE      C21            12.8810787977       25.8760244888      -15.5006628199  MEMB      139             0.0000000000
     15843       139  SAPE      O22            13.0959269461       26.9153843327      -14.9167956702  MEMB      139             0.0000000000
     15844       139  SAPE      C22            12.9662876993       24.4986381542      -14.8315478445  MEMB      139             0.0000000000
     15845       139  SAPE      H2R            13.8550358433       23.9893489822      -15.2501771708  MEMB      139             0.0000000000
     15846       139  SAPE      H2S            13.1295337980       24.6510481254      -13.7427870194  MEMB      139             0.0000000000
     15847       139  SAPE      C3             10.3128743263       26.8783015248      -16.4432828627  MEMB      139             0.0000000000
     15848       139  SAPE      HX              9.5776843337       27.4372331535      -17.0670458656  MEMB      139             0.0000000000
     15849       139  SAPE      HY             10.4338403314       27.4392308739      -15.4879688304  MEMB      139             0.0000000000
     15850       139  SAPE      O31             9.9077350472       25.5258614002      -16.1071873307  MEMB      139             0.0000000000
     15851       139  SAPE      C31             8.8151359908       25.0437411234      -16.6814307227  MEMB      139             0.0000000000
     15852       139  SAPE      O32             8.1251568301       25.6296623670      -17.4922795212  MEMB      139             0.0000000000
     15853       139  SAPE      C32             8.4712917546       23.6653398756      -16.1005540917  MEMB      139             0.0000000000
     15854       139  SAPE      H2X             9.3726972403       23.1113090569      -15.8107745423  MEMB      139             0.0000000000
     15855       139  SAPE      H2Y             7.9738558247       23.1076818595      -16.9239729063  MEMB      139             0.0000000000
     15856       139  SAPE      C23            11.7216153772       23.5909193439      -14.9898650681  MEMB      139             0.0000000000
     15857       139  SAPE      H3R            11.3796848287       23.5897411423      -16.0496599891  MEMB      139             0.0000000000
     15858       139  SAPE      H3S            10.8933169886       23.9501771661      -14.3419085717  MEMB      139             0.0000000000
     15859       139  SAPE      C24            12.0711602954       22.1532965308      -14.6320890946  MEMB      139             0.0000000000
     15860       139  SAPE      H4R            12.8738386071       22.1631064583      -13.8654653262  MEMB      139             0.0000000000
     15861       139  SAPE      H4S            12.5028613693       21.7469745477      -15.5677241982  MEMB      139             0.0000000000
     15862       139  SAPE      C25            11.0570398895       21.1486975649      -14.2222686816  MEMB      139             0.0000000000
     15863       139  SAPE      H5R            10.8217052685       20.4244578544      -15.0184297866  MEMB      139             0.0000000000
     15864       139  SAPE      C26            10.4910853148       20.9444141102      -13.0270175352  MEMB      139             0.0000000000
     15865       139  SAPE      H6R            10.0608430456       19.9530974788      -12.9586476463  MEMB      139             0.0000000000
     15866       139  SAPE      C27            10.6228618372       21.6133439977      -11.6796237124  MEMB      139             0.0000000000
     15867       139  SAPE      H7R             9.8121107168       22.3501425629      -11.6041196961  MEMB      139             0.0000000000
     15868       139  SAPE      H7S            11.5429287231       22.2282470940      -11.6195575884  MEMB      139             0.0000000000
     15869       139  SAPE      C28            10.5198794729       20.6189700664      -10.5314034721  MEMB      139             0.0000000000
     15870       139  SAPE      H8R            10.6059079838       19.5642851523      -10.8327139268  MEMB      139             0.0000000000
     15871       139  SAPE      C29            10.3516515004       20.8582341189       -9.2051374533  MEMB      139             0.0000000000
     15872       139  SAPE      H9R            10.3199501730       20.0172881670       -8.4977082198  MEMB      139             0.0000000000
     15873       139  SAPE      C210           10.2204950226       22.1976566748       -8.5551315860  MEMB      139             0.0000000000
     15874       139  SAPE      H10R            9.1383561760       22.3243793824       -8.3813929996  MEMB      139             0.0000000000
     15875       139  SAPE      H10S           10.4931235014       22.9590480111       -9.3177557833  MEMB      139             0.0000000000
     15876       139  SAPE      C211           10.9910826757       22.5608897781       -7.3002929902  MEMB      139             0.0000000000
     15877       139  SAPE      H11R           11.8054493967       23.2556534799       -7.5668347483  MEMB      139             0.0000000000
     15878       139  SAPE      C212           10.9460824424       22.2591226883       -5.9715808245  MEMB      139             0.0000000000
     15879       139  SAPE      H12R           11.7299090881       22.7420346174       -5.3649096980  MEMB      139             0.0000000000
     15880       139  SAPE      C213           10.0781132793       21.3890385770       -5.0955480674  MEMB      139             0.0000000000
     15881       139  SAPE      H13R            9.1273961852       21.2393370213       -5.6312719273  MEMB      139             0.0000000000
     15882       139  SAPE      H13S            9.8157210583       22.0025339476       -4.2061914180  MEMB      139             0.0000000000
     15883       139  SAPE      C214           10.6391855669       20.0430655756       -4.6290198552  MEMB      139             0.0000000000
     15884       139  SAPE      H14R           11.0177882855       19.4113045622       -5.4507807384  MEMB      139             0.0000000000
     15885       139  SAPE      C215           10.6755898296       19.5090667614       -3.3724774079  MEMB      139             0.0000000000
     15886       139  SAPE      H15R           11.0924306693       18.4901223779       -3.2636203208  MEMB      139             0.0000000000
     15887       139  SAPE      C216           10.1567668683       20.1249122398       -2.0742845677  MEMB      139             0.0000000000
     15888       139  SAPE      H16R            9.1587978939       19.6880882710       -1.8798825646  MEMB      139             0.0000000000
     15889       139  SAPE      H16S           10.0125448022       21.2191861500       -2.2041485636  MEMB      139             0.0000000000
     15890       139  SAPE      C217           10.8044603679       19.8790716234       -0.6792998581  MEMB      139             0.0000000000
     15891       139  SAPE      H17R           11.6631504640       19.1831907836       -0.7713310100  MEMB      139             0.0000000000
     15892       139  SAPE      H17S           10.0743306641       19.3485882031       -0.0284772957  MEMB      139             0.0000000000
     15893       139  SAPE      C218           11.2422524250       21.1542324046        0.0690042829  MEMB      139             0.0000000000
     15894       139  SAPE      H18R           11.7731680055       21.8689666630       -0.5928590524  MEMB      139             0.0000000000
     15895       139  SAPE      H18S           11.9703207272       20.8545580760        0.8539240717  MEMB      139             0.0000000000
     15896       139  SAPE      C219           10.1264716546       21.9587451868        0.7328762881  MEMB      139             0.0000000000
     15897       139  SAPE      H19R            9.5796572027       21.3202810739        1.4605516448  MEMB      139             0.0000000000
     15898       139  SAPE      H19S            9.4038878117       22.3005993942       -0.0418312944  MEMB      139             0.0000000000
     15899       139  SAPE      C220           10.7198454032       23.1708244216        1.4465477824  MEMB      139             0.0000000000
     15900       139  SAPE      H20R            9.9358195080       23.8598535336        1.8235774595  MEMB      139             0.0000000000
     15901       139  SAPE      H20S           11.3832229712       23.7336440034        0.7530137535  MEMB      139             0.0000000000
     15902       139  SAPE      H20T           11.3385183270       22.8348712919        2.3063004430  MEMB      139             0.0000000000
     15903       139  SAPE      C33             7.4877384888       23.7029839655      -14.8956656362  MEMB      139             0.0000000000
     15904       139  SAPE      H3X             6.9349865961       22.7308232842      -14.8956035528  MEMB      139             0.0000000000
     15905       139  SAPE      H3Y             6.7166231664       24.4906401406      -15.0356063573  MEMB      139             0.0000000000
     15906       139  SAPE      C34             8.1349854998       23.8127211135      -13.5051958968  MEMB      139             0.0000000000
     15907       139  SAPE      H4X             8.7872415818       24.7073061905      -13.4672867087  MEMB      139             0.0000000000
     15908       139  SAPE      H4Y             8.7728845970       22.9195735968      -13.3636065677  MEMB      139             0.0000000000
     15909       139  SAPE      C35             7.0817832905       23.8466984542      -12.3747735242  MEMB      139             0.0000000000
     15910       139  SAPE      H5X             6.4292869609       22.9503048793      -12.4797939798  MEMB      139             0.0000000000
     15911       139  SAPE      H5Y             6.4365848947       24.7397799085      -12.5329997284  MEMB      139             0.0000000000
     15912       139  SAPE      C36             7.6292740517       23.8992749590      -10.9302821870  MEMB      139             0.0000000000
     15913       139  SAPE      H6X             8.2873426065       23.0497543666      -10.6982021100  MEMB      139             0.0000000000
     15914       139  SAPE      H6Y             6.7629531703       23.8081459984      -10.2379961333  MEMB      139             0.0000000000
     15915       139  SAPE      C37             8.3578493625       25.2089026773      -10.6486875405  MEMB      139             0.0000000000
     15916       139  SAPE      H7X             7.5567583834       25.9730398034      -10.6952163344  MEMB      139             0.0000000000
     15917       139  SAPE      H7Y             9.0986769877       25.4059454851      -11.4547038522  MEMB      139             0.0000000000
     15918       139  SAPE      C38             9.1143055125       25.3737494263       -9.3245252776  MEMB      139             0.0000000000
     15919       139  SAPE      H8X             9.2913110072       26.4643231973       -9.2217097829  MEMB      139             0.0000000000
     15920       139  SAPE      H8Y            10.1289275948       24.9373809419       -9.4060051650  MEMB      139             0.0000000000
     15921       139  SAPE      C39             8.3954441443       24.8800786917       -8.0625558246  MEMB      139             0.0000000000
     15922       139  SAPE      H9X             8.9247509922       24.0601233884       -7.5590296072  MEMB      139             0.0000000000
     15923       139  SAPE      H9Y             7.3788572488       24.5110490175       -8.3131012708  MEMB      139             0.0000000000
     15924       139  SAPE      C310            8.2892892429       25.9447985725       -6.9786266571  MEMB      139             0.0000000000
     15925       139  SAPE      H10X            7.7772490950       25.5052390701       -6.0932532430  MEMB      139             0.0000000000
     15926       139  SAPE      H10Y            7.6179661490       26.6873134561       -7.4405150083  MEMB      139             0.0000000000
     15927       139  SAPE      C311            9.6115117174       26.5997359113       -6.5139543531  MEMB      139             0.0000000000
     15928       139  SAPE      H11X            9.4113691188       27.0640400935       -5.5217299729  MEMB      139             0.0000000000
     15929       139  SAPE      H11Y            9.9050162712       27.4130244108       -7.2088736531  MEMB      139             0.0000000000
     15930       139  SAPE      C312           10.7820292469       25.6156465004       -6.4074418448  MEMB      139             0.0000000000
     15931       139  SAPE      H12X           10.9819674863       25.2020092557       -7.4182475411  MEMB      139             0.0000000000
     15932       139  SAPE      H12Y           10.4459498571       24.7966561512       -5.7376694927  MEMB      139             0.0000000000
     15933       139  SAPE      C313           12.1289007233       26.1493530874       -5.8979593956  MEMB      139             0.0000000000
     15934       139  SAPE      H13X           12.5932236102       26.7802636518       -6.6900620812  MEMB      139             0.0000000000
     15935       139  SAPE      H13Y           12.8008875861       25.2759151826       -5.7271904274  MEMB      139             0.0000000000
     15936       139  SAPE      C314           12.0403464914       26.9619329860       -4.6082184569  MEMB      139             0.0000000000
     15937       139  SAPE      H14X           11.4970225664       27.9077105717       -4.8369391469  MEMB      139             0.0000000000
     15938       139  SAPE      H14Y           13.0635600362       27.2454593053       -4.2721977952  MEMB      139             0.0000000000
     15939       139  SAPE      C315           11.3169409413       26.2614822135       -3.4486609090  MEMB      139             0.0000000000
     15940       139  SAPE      H15X           11.9414795593       25.4350360849       -3.0450231137  MEMB      139             0.0000000000
     15941       139  SAPE      H15Y           10.3512265941       25.8243762695       -3.7838292154  MEMB      139             0.0000000000
     15942       139  SAPE      C316           11.0238939945       27.3072498678       -2.3779620126  MEMB      139             0.0000000000
     15943       139  SAPE      H16X           10.3715402595       28.0937174579       -2.8235608116  MEMB      139             0.0000000000
     15944       139  SAPE      H16Y           11.9857335877       27.7917698329       -2.0942200576  MEMB      139             0.0000000000
     15945       139  SAPE      C317           10.3512164830       26.7925668974       -1.1132636164  MEMB      139             0.0000000000
     15946       139  SAPE      H17X           10.9799617009       25.9910986287       -0.6619822769  MEMB      139             0.0000000000
     15947       139  SAPE      H17Y            9.3588117912       26.3480261009       -1.3527559966  MEMB      139             0.0000000000
     15948       139  SAPE      C318           10.1907905813       27.9456812153       -0.1277976406  MEMB      139             0.0000000000
     15949       139  SAPE      H18X           10.5765799816       27.6541041109        0.8716171409  MEMB      139             0.0000000000
     15950       139  SAPE      H18Y            9.1275349778       28.2550977808       -0.0463045532  MEMB      139             0.0000000000
     15951       139  SAPE      H18Z           10.7756207128       28.8309132135       -0.4584967168  MEMB      139             0.0000000000
     15952       140  SLPC      N              19.5050451583      -21.3758985874      -18.4046320050  MEMB      140             0.0000000000
     15953       140  SLPC      C13            20.9627979584      -21.6187070689      -18.3292462757  MEMB      140             0.0000000000
     15954       140  SLPC      H13A           21.5035931780      -20.8782436411      -18.9048360452  MEMB      140             0.0000000000
     15955       140  SLPC      H13B           21.3153272224      -21.5816409163      -17.3024889807  MEMB      140             0.0000000000
     15956       140  SLPC      H13C           21.2437710885      -22.5939856228      -18.7246962413  MEMB      140             0.0000000000
     15957       140  SLPC      C14            19.0775605341      -21.1189206514      -19.7995087566  MEMB      140             0.0000000000
     15958       140  SLPC      H14A           19.5765802626      -20.2573473869      -20.2364116027  MEMB      140             0.0000000000
     15959       140  SLPC      H14B           19.2070035727      -21.9843165982      -20.4334479482  MEMB      140             0.0000000000
     15960       140  SLPC      H14C           18.0176222591      -20.8748383527      -19.7857970676  MEMB      140             0.0000000000
     15961       140  SLPC      C15            19.1476838968      -20.1397096083      -17.6435381072  MEMB      140             0.0000000000
     15962       140  SLPC      H15A           19.4506655489      -19.2344573797      -18.1509906298  MEMB      140             0.0000000000
     15963       140  SLPC      H15B           18.0551867050      -20.0868522638      -17.5636491906  MEMB      140             0.0000000000
     15964       140  SLPC      H15C           19.5153195451      -20.1515186292      -16.6268880841  MEMB      140             0.0000000000
     15965       140  SLPC      C12            18.7212895674      -22.5629897655      -17.8737261073  MEMB      140             0.0000000000
     15966       140  SLPC      H12A           18.8569218677      -22.6610071919      -16.7900846084  MEMB      140             0.0000000000
     15967       140  SLPC      H12B           19.0893385549      -23.4806245158      -18.3234861664  MEMB      140             0.0000000000
     15968       140  SLPC      C11            17.1972068426      -22.4958426743      -18.0947227760  MEMB      140             0.0000000000
     15969       140  SLPC      H11A           16.8137513451      -23.5369248252      -17.9618693046  MEMB      140             0.0000000000
     15970       140  SLPC      H11B           16.8991664958      -22.2262861388      -19.1298774089  MEMB      140             0.0000000000
     15971       140  SLPC      P              16.4062979633      -22.0593469062      -15.6703467442  MEMB      140             0.0000000000
     15972       140  SLPC      O13            17.7442928255      -22.2920504048      -15.0870522359  MEMB      140             0.0000000000
     15973       140  SLPC      O14            15.4614867977      -21.1453457135      -15.0032427104  MEMB      140             0.0000000000
     15974       140  SLPC      O12            16.6143241672      -21.5625257898      -17.1794417849  MEMB      140             0.0000000000
     15975       140  SLPC      O11            15.6406005818      -23.3872616392      -15.9230023017  MEMB      140             0.0000000000
     15976       140  SLPC      C1             14.4453443540      -23.3422023027      -16.7315437417  MEMB      140             0.0000000000
     15977       140  SLPC      HA             13.8333288173      -22.4319192648      -16.5429652695  MEMB      140             0.0000000000
     15978       140  SLPC      HB             14.6951871679      -23.3517322843      -17.8161988192  MEMB      140             0.0000000000
     15979       140  SLPC      C2             13.5825384735      -24.5875523019      -16.4519205626  MEMB      140             0.0000000000
     15980       140  SLPC      HS             12.5904782542      -24.4700200744      -16.9345447636  MEMB      140             0.0000000000
     15981       140  SLPC      O21            13.4362787815      -24.6961179826      -15.0274372437  MEMB      140             0.0000000000
     15982       140  SLPC      C21            12.6194349892      -25.6378389099      -14.5916940933  MEMB      140             0.0000000000
     15983       140  SLPC      O22            11.8574484447      -26.2883826121      -15.2809550207  MEMB      140             0.0000000000
     15984       140  SLPC      C22            12.7936282588      -25.7739882775      -13.0856820530  MEMB      140             0.0000000000
     15985       140  SLPC      H2R            13.7946553901      -26.2179149197      -12.9072298230  MEMB      140             0.0000000000
     15986       140  SLPC      H2S            12.7626168438      -24.7683137858      -12.6296995721  MEMB      140             0.0000000000
     15987       140  SLPC      C3             14.2723609768      -25.8275333257      -17.1022669244  MEMB      140             0.0000000000
     15988       140  SLPC      HX             14.0691991806      -25.6970312864      -18.1846400053  MEMB      140             0.0000000000
     15989       140  SLPC      HY             13.7889147890      -26.7777689538      -16.7905864895  MEMB      140             0.0000000000
     15990       140  SLPC      O31            15.7083391539      -25.8688709220      -16.9627183972  MEMB      140             0.0000000000
     15991       140  SLPC      C31            16.0915927398      -26.2937143115      -15.7696657840  MEMB      140             0.0000000000
     15992       140  SLPC      O32            15.3450646178      -26.6729523874      -14.8804418644  MEMB      140             0.0000000000
     15993       140  SLPC      C32            17.6127968516      -26.2057323172      -15.6447077213  MEMB      140             0.0000000000
     15994       140  SLPC      H2X            17.8484773801      -25.1340564348      -15.4803225650  MEMB      140             0.0000000000
     15995       140  SLPC      H2Y            18.0960708861      -26.5534362551      -16.5811266445  MEMB      140             0.0000000000
     15996       140  SLPC      C23            11.6837110468      -26.6627486043      -12.5062448181  MEMB      140             0.0000000000
     15997       140  SLPC      H3R            11.7776488858      -27.6807793131      -12.9128402691  MEMB      140             0.0000000000
     15998       140  SLPC      H3S            10.6954433533      -26.3045157256      -12.8854171784  MEMB      140             0.0000000000
     15999       140  SLPC      C24            11.5869563468      -26.6281190420      -10.9735098893  MEMB      140             0.0000000000
     16000       140  SLPC      H4R            10.8351748441      -27.3616234734      -10.6116697064  MEMB      140             0.0000000000
     16001       140  SLPC      H4S            11.2259708852      -25.6049718950      -10.7681669403  MEMB      140             0.0000000000
     16002       140  SLPC      C25            12.8558574248      -26.7325738636      -10.1271145394  MEMB      140             0.0000000000
     16003       140  SLPC      H5R            13.6932153890      -26.1895053372      -10.6198242126  MEMB      140             0.0000000000
     16004       140  SLPC      H5S            13.1555995849      -27.7955635922      -10.0244668549  MEMB      140             0.0000000000
     16005       140  SLPC      C26            12.6424801868      -26.1323047416       -8.7237069574  MEMB      140             0.0000000000
     16006       140  SLPC      H6R            11.8425121262      -26.6741394636       -8.1751056963  MEMB      140             0.0000000000
     16007       140  SLPC      H6S            12.3212855027      -25.0668461165       -8.7963956648  MEMB      140             0.0000000000
     16008       140  SLPC      C27            13.9493433865      -26.1558138607       -7.9328662852  MEMB      140             0.0000000000
     16009       140  SLPC      H7R            14.3737643117      -27.1622761520       -8.0200174029  MEMB      140             0.0000000000
     16010       140  SLPC      H7S            13.7437458179      -26.0257469338       -6.8560252832  MEMB      140             0.0000000000
     16011       140  SLPC      C28            14.8869271616      -25.0753430267       -8.5128331529  MEMB      140             0.0000000000
     16012       140  SLPC      H8R            14.1900204982      -24.3694238609       -9.0155328963  MEMB      140             0.0000000000
     16013       140  SLPC      H8S            15.4881303705      -25.4611222216       -9.3496021925  MEMB      140             0.0000000000
     16014       140  SLPC      C29            15.7915451372      -24.2064478413       -7.7040547692  MEMB      140             0.0000000000
     16015       140  SLPC      H9R            15.9481868816      -23.2522023592       -8.1959942592  MEMB      140             0.0000000000
     16016       140  SLPC      C210           16.4418715380      -24.3748183010       -6.5584932229  MEMB      140             0.0000000000
     16017       140  SLPC      H10R           17.0176960742      -23.4959463182       -6.2108352631  MEMB      140             0.0000000000
     16018       140  SLPC      C211           16.4584935789      -25.5906810891       -5.6724082318  MEMB      140             0.0000000000
     16019       140  SLPC      H11R           17.0211695106      -26.3989524347       -6.1668076223  MEMB      140             0.0000000000
     16020       140  SLPC      H11S           15.4421533826      -25.9725399285       -5.4337027457  MEMB      140             0.0000000000
     16021       140  SLPC      C212           17.2201695007      -25.2182653083       -4.4476703776  MEMB      140             0.0000000000
     16022       140  SLPC      H12R           17.9756800231      -24.4420933433       -4.6221050091  MEMB      140             0.0000000000
     16023       140  SLPC      C213           17.2046746155      -25.7773853939       -3.2401930236  MEMB      140             0.0000000000
     16024       140  SLPC      H13R           17.8710734565      -25.3013732275       -2.5275465115  MEMB      140             0.0000000000
     16025       140  SLPC      C214           16.4283944286      -26.9559164598       -2.7148999643  MEMB      140             0.0000000000
     16026       140  SLPC      H14R           17.0401220212      -27.5046802166       -1.9626537764  MEMB      140             0.0000000000
     16027       140  SLPC      H14S           16.2446353792      -27.6634972029       -3.5490405477  MEMB      140             0.0000000000
     16028       140  SLPC      C215           15.0817579368      -26.5531554919       -2.0819298936  MEMB      140             0.0000000000
     16029       140  SLPC      H15R           14.2550392333      -26.9401870357       -2.7171081589  MEMB      140             0.0000000000
     16030       140  SLPC      H15S           14.9964822309      -25.4502908249       -2.0691526187  MEMB      140             0.0000000000
     16031       140  SLPC      C216           14.8105388299      -26.9977266565       -0.6406260094  MEMB      140             0.0000000000
     16032       140  SLPC      H16R           15.5861429430      -26.6059175769        0.0351230995  MEMB      140             0.0000000000
     16033       140  SLPC      H16S           14.8612473290      -28.1042015428       -0.5706141325  MEMB      140             0.0000000000
     16034       140  SLPC      C217           13.4185244829      -26.5142158053       -0.1867301578  MEMB      140             0.0000000000
     16035       140  SLPC      H17R           13.0477583118      -27.1599594592        0.6385620386  MEMB      140             0.0000000000
     16036       140  SLPC      H17S           12.7425802516      -26.6736112899       -1.0559603982  MEMB      140             0.0000000000
     16037       140  SLPC      C218           13.3107541790      -25.0525758184        0.2697768898  MEMB      140             0.0000000000
     16038       140  SLPC      H18R           12.4375639578      -24.5393092760       -0.1786387629  MEMB      140             0.0000000000
     16039       140  SLPC      H18S           14.2119660949      -24.4847929242       -0.0355898164  MEMB      140             0.0000000000
     16040       140  SLPC      H18T           13.2040523816      -24.9773938122        1.3712539600  MEMB      140             0.0000000000
     16041       140  SLPC      C33            18.1297752314      -27.0385280041      -14.4532770715  MEMB      140             0.0000000000
     16042       140  SLPC      H3X            18.0130228846      -28.0971038233      -14.7403919511  MEMB      140             0.0000000000
     16043       140  SLPC      H3Y            17.4732341154      -26.8890404775      -13.5762914304  MEMB      140             0.0000000000
     16044       140  SLPC      C34            19.6064305175      -26.7931028404      -14.0931417206  MEMB      140             0.0000000000
     16045       140  SLPC      H4X            20.2046467476      -26.7929757239      -15.0356500858  MEMB      140             0.0000000000
     16046       140  SLPC      H4Y            19.9851328339      -27.6387269170      -13.4773953863  MEMB      140             0.0000000000
     16047       140  SLPC      C35            19.8669607140      -25.4968469223      -13.3167271725  MEMB      140             0.0000000000
     16048       140  SLPC      H5X            19.6837990203      -24.6438710476      -14.0135025133  MEMB      140             0.0000000000
     16049       140  SLPC      H5Y            20.9396452441      -25.4467143865      -13.0268823411  MEMB      140             0.0000000000
     16050       140  SLPC      C36            19.0011442623      -25.3103942994      -12.0542486486  MEMB      140             0.0000000000
     16051       140  SLPC      H6X            19.6386533245      -25.3965697659      -11.1486165312  MEMB      140             0.0000000000
     16052       140  SLPC      H6Y            18.2159712245      -26.0871190260      -11.9548864168  MEMB      140             0.0000000000
     16053       140  SLPC      C37            18.3263712450      -23.9396599706      -12.0967574022  MEMB      140             0.0000000000
     16054       140  SLPC      H7X            17.6926516033      -23.8687255868      -13.0121381324  MEMB      140             0.0000000000
     16055       140  SLPC      H7Y            19.1342033733      -23.1811741724      -12.2067498324  MEMB      140             0.0000000000
     16056       140  SLPC      C38            17.4643315716      -23.5809856068      -10.8792679738  MEMB      140             0.0000000000
     16057       140  SLPC      H8X            18.0405180141      -23.8133508804       -9.9578173115  MEMB      140             0.0000000000
     16058       140  SLPC      H8Y            16.5372588140      -24.1962302209      -10.8820363363  MEMB      140             0.0000000000
     16059       140  SLPC      C39            17.1181440551      -22.0839322830      -10.9487343604  MEMB      140             0.0000000000
     16060       140  SLPC      H9X            16.3759719026      -21.9084899606      -11.7585176084  MEMB      140             0.0000000000
     16061       140  SLPC      H9Y            18.0590670842      -21.5743899879      -11.2706107439  MEMB      140             0.0000000000
     16062       140  SLPC      C310           16.6882855178      -21.3915979569       -9.6415679132  MEMB      140             0.0000000000
     16063       140  SLPC      H10X           17.0621746325      -20.3430982655       -9.7191961936  MEMB      140             0.0000000000
     16064       140  SLPC      H10Y           17.2134388649      -21.8358213774       -8.7700296699  MEMB      140             0.0000000000
     16065       140  SLPC      C311           15.1601486436      -21.2884767827       -9.4139606637  MEMB      140             0.0000000000
     16066       140  SLPC      H11X           14.6851697454      -22.2780501930       -9.3233806684  MEMB      140             0.0000000000
     16067       140  SLPC      H11Y           14.7377355039      -20.8301317585      -10.3392090292  MEMB      140             0.0000000000
     16068       140  SLPC      C312           14.8499252208      -20.3485776683       -8.2288749850  MEMB      140             0.0000000000
     16069       140  SLPC      H12X           14.5767838375      -19.4474226499       -8.7911371219  MEMB      140             0.0000000000
     16070       140  SLPC      H12Y           15.7624658987      -20.1391116698       -7.6307881581  MEMB      140             0.0000000000
     16071       140  SLPC      C313           13.5963823452      -20.4295459581       -7.3350119871  MEMB      140             0.0000000000
     16072       140  SLPC      H13X           12.7462568412      -20.0262595824       -7.9373046234  MEMB      140             0.0000000000
     16073       140  SLPC      H13Y           13.7134426862      -19.7348893466       -6.4701578947  MEMB      140             0.0000000000
     16074       140  SLPC      C314           13.1470237305      -21.7941093019       -6.8395914210  MEMB      140             0.0000000000
     16075       140  SLPC      H14X           13.2861102331      -22.5539159231       -7.6369307907  MEMB      140             0.0000000000
     16076       140  SLPC      H14Y           12.0533537533      -21.7019354820       -6.6448709182  MEMB      140             0.0000000000
     16077       140  SLPC      C315           13.7268991285      -22.2878364383       -5.5172249438  MEMB      140             0.0000000000
     16078       140  SLPC      H15X           13.4569041082      -21.5990743300       -4.6894063664  MEMB      140             0.0000000000
     16079       140  SLPC      H15Y           14.8352063089      -22.3432944660       -5.5677689908  MEMB      140             0.0000000000
     16080       140  SLPC      C316           13.1524136712      -23.6862835917       -5.2723337152  MEMB      140             0.0000000000
     16081       140  SLPC      H16X           13.5034401305      -24.2855434902       -6.1256911565  MEMB      140             0.0000000000
     16082       140  SLPC      H16Y           12.0483904365      -23.6881150433       -5.3385903651  MEMB      140             0.0000000000
     16083       140  SLPC      C317           13.6132897401      -24.3409506018       -3.9806366194  MEMB      140             0.0000000000
     16084       140  SLPC      H17X           14.7243154029      -24.2887009910       -3.9588442110  MEMB      140             0.0000000000
     16085       140  SLPC      H17Y           13.3288371550      -25.4190190486       -3.9876388353  MEMB      140             0.0000000000
     16086       140  SLPC      C318           13.0713433502      -23.6758702188       -2.7227546514  MEMB      140             0.0000000000
     16087       140  SLPC      H18X           12.9338571324      -22.5925357987       -2.8721873039  MEMB      140             0.0000000000
     16088       140  SLPC      H18Y           13.8067302269      -23.7791546717       -1.9050216114  MEMB      140             0.0000000000
     16089       140  SLPC      H18Z           12.1047044590      -24.1269604844       -2.4133848627  MEMB      140             0.0000000000
     16090       141  SLPC      N             -29.7667557877       -0.4647936724      -18.0833884141  MEMB      141             0.0000000000
     16091       141  SLPC      C13           -31.0542940800       -1.2133211078      -17.9632461530  MEMB      141             0.0000000000
     16092       141  SLPC      H13A          -31.8565965446       -0.5097818878      -17.7572919874  MEMB      141             0.0000000000
     16093       141  SLPC      H13B          -31.3047167312       -1.7441774615      -18.8782592436  MEMB      141             0.0000000000
     16094       141  SLPC      H13C          -31.0144033929       -1.9326298103      -17.1614251627  MEMB      141             0.0000000000
     16095       141  SLPC      C14           -29.4600716519        0.1788202059      -16.7648290930  MEMB      141             0.0000000000
     16096       141  SLPC      H14A          -28.5670593508        0.7905236662      -16.8393777210  MEMB      141             0.0000000000
     16097       141  SLPC      H14B          -30.2735950829        0.7978564056      -16.4193404854  MEMB      141             0.0000000000
     16098       141  SLPC      H14C          -29.1975149772       -0.5894408257      -16.0390410896  MEMB      141             0.0000000000
     16099       141  SLPC      C15           -29.9812503435        0.6203141741      -19.0794909203  MEMB      141             0.0000000000
     16100       141  SLPC      H15A          -29.1203189897        1.2630836798      -19.1854271537  MEMB      141             0.0000000000
     16101       141  SLPC      H15B          -30.2516573568        0.2310272408      -20.0612216898  MEMB      141             0.0000000000
     16102       141  SLPC      H15C          -30.8236435960        1.2409745210      -18.7812456788  MEMB      141             0.0000000000
     16103       141  SLPC      C12           -28.5979383759       -1.3394170704      -18.4897221861  MEMB      141             0.0000000000
     16104       141  SLPC      H12A          -27.6996054218       -0.7363288059      -18.5963326792  MEMB      141             0.0000000000
     16105       141  SLPC      H12B          -28.7895654912       -1.7476786277      -19.4724664645  MEMB      141             0.0000000000
     16106       141  SLPC      C11           -28.1942317604       -2.4816587831      -17.5360174287  MEMB      141             0.0000000000
     16107       141  SLPC      H11A          -27.5530150869       -3.2105653444      -18.0870755350  MEMB      141             0.0000000000
     16108       141  SLPC      H11B          -29.0992658209       -3.0222802483      -17.2428810387  MEMB      141             0.0000000000
     16109       141  SLPC      P             -25.9754823034       -1.7294579740      -16.4270791529  MEMB      141             0.0000000000
     16110       141  SLPC      O13           -25.5415319293       -1.7914103878      -17.8494932311  MEMB      141             0.0000000000
     16111       141  SLPC      O14           -25.6620356034       -0.4993642081      -15.6698424455  MEMB      141             0.0000000000
     16112       141  SLPC      O12           -27.5539559466       -1.9926265319      -16.3574314056  MEMB      141             0.0000000000
     16113       141  SLPC      O11           -25.3562784267       -2.9659840540      -15.6580373185  MEMB      141             0.0000000000
     16114       141  SLPC      C1            -26.0821574231       -4.1510767303      -15.3370213351  MEMB      141             0.0000000000
     16115       141  SLPC      HA            -26.9612162381       -4.3007968485      -16.0009159564  MEMB      141             0.0000000000
     16116       141  SLPC      HB            -25.4037011706       -5.0158321367      -15.5099641403  MEMB      141             0.0000000000
     16117       141  SLPC      C2            -26.5660346631       -4.2346779518      -13.8501661979  MEMB      141             0.0000000000
     16118       141  SLPC      HS            -27.1036122328       -5.2080319939      -13.7682480951  MEMB      141             0.0000000000
     16119       141  SLPC      O21           -27.4479959206       -3.1266233215      -13.5364424938  MEMB      141             0.0000000000
     16120       141  SLPC      C21           -28.2795961550       -3.3361610984      -12.5186949095  MEMB      141             0.0000000000
     16121       141  SLPC      O22           -28.3582843889       -4.3729269033      -11.8925160377  MEMB      141             0.0000000000
     16122       141  SLPC      C22           -29.1867927640       -2.1051609682      -12.3246825655  MEMB      141             0.0000000000
     16123       141  SLPC      H2R           -28.6035758911       -1.1894548757      -12.5433536881  MEMB      141             0.0000000000
     16124       141  SLPC      H2S           -29.9860546662       -2.1894318923      -13.0893936770  MEMB      141             0.0000000000
     16125       141  SLPC      C3            -25.3494981345       -4.2720732855      -12.8656597641  MEMB      141             0.0000000000
     16126       141  SLPC      HX            -24.5304174956       -4.8290276535      -13.3708353282  MEMB      141             0.0000000000
     16127       141  SLPC      HY            -25.6423669672       -4.8753076643      -11.9729944937  MEMB      141             0.0000000000
     16128       141  SLPC      O31           -24.8738324041       -2.9462792786      -12.5458707413  MEMB      141             0.0000000000
     16129       141  SLPC      C31           -25.3016826130       -2.4784996888      -11.3812575540  MEMB      141             0.0000000000
     16130       141  SLPC      O32           -25.5908378777       -3.1572097720      -10.4143558702  MEMB      141             0.0000000000
     16131       141  SLPC      C32           -25.5482038416       -0.9723017412      -11.4799935876  MEMB      141             0.0000000000
     16132       141  SLPC      H2X           -26.6394998937       -0.8442823338      -11.3435989545  MEMB      141             0.0000000000
     16133       141  SLPC      H2Y           -25.2883317200       -0.6238845298      -12.4997948358  MEMB      141             0.0000000000
     16134       141  SLPC      C23           -29.8598875646       -1.9931448849      -10.9253020314  MEMB      141             0.0000000000
     16135       141  SLPC      H3R           -30.3157505940       -2.9625211306      -10.6209633882  MEMB      141             0.0000000000
     16136       141  SLPC      H3S           -30.6887331232       -1.2495765980      -11.0100660882  MEMB      141             0.0000000000
     16137       141  SLPC      C24           -28.9159004007       -1.4826599133       -9.8269882437  MEMB      141             0.0000000000
     16138       141  SLPC      H4R           -28.4154721997       -0.5554597485      -10.1858764907  MEMB      141             0.0000000000
     16139       141  SLPC      H4S           -28.1310615911       -2.2487779846       -9.6283476815  MEMB      141             0.0000000000
     16140       141  SLPC      C25           -29.6213037441       -1.1241033927       -8.5070723772  MEMB      141             0.0000000000
     16141       141  SLPC      H5R           -30.2054207340       -1.9980661175       -8.1426697524  MEMB      141             0.0000000000
     16142       141  SLPC      H5S           -30.3336203322       -0.2902695961       -8.6978693031  MEMB      141             0.0000000000
     16143       141  SLPC      C26           -28.6289005828       -0.6842712260       -7.4160152447  MEMB      141             0.0000000000
     16144       141  SLPC      H6R           -28.0119668588        0.1571116286       -7.7982199161  MEMB      141             0.0000000000
     16145       141  SLPC      H6S           -27.9484553142       -1.5323863675       -7.1804687625  MEMB      141             0.0000000000
     16146       141  SLPC      C27           -29.3096691952       -0.1953100568       -6.1342332468  MEMB      141             0.0000000000
     16147       141  SLPC      H7R           -30.0351712372       -0.9715282389       -5.7999940960  MEMB      141             0.0000000000
     16148       141  SLPC      H7S           -29.8829113897        0.7292458577       -6.3596904074  MEMB      141             0.0000000000
     16149       141  SLPC      C28           -28.3507022479        0.0845740250       -4.9558530928  MEMB      141             0.0000000000
     16150       141  SLPC      H8R           -27.9289426986       -0.8870528329       -4.6164809538  MEMB      141             0.0000000000
     16151       141  SLPC      H8S           -28.9884459136        0.4483620104       -4.1258137444  MEMB      141             0.0000000000
     16152       141  SLPC      C29           -27.2179588697        1.0585441526       -5.1568413454  MEMB      141             0.0000000000
     16153       141  SLPC      H9R           -26.2865024721        0.5922710364       -5.5109455284  MEMB      141             0.0000000000
     16154       141  SLPC      C210          -27.2338633068        2.3863919547       -4.9175681843  MEMB      141             0.0000000000
     16155       141  SLPC      H10R          -26.3143063763        2.9652374454       -5.0955232371  MEMB      141             0.0000000000
     16156       141  SLPC      C211          -28.3988295586        3.2001084926       -4.4001551141  MEMB      141             0.0000000000
     16157       141  SLPC      H11R          -29.3397747280        2.6127583339       -4.4427720840  MEMB      141             0.0000000000
     16158       141  SLPC      H11S          -28.5704474889        4.0223902113       -5.1232813780  MEMB      141             0.0000000000
     16159       141  SLPC      C212          -28.2726536674        3.8437747524       -3.0381389613  MEMB      141             0.0000000000
     16160       141  SLPC      H12R          -28.2682721814        4.9429795197       -3.0713819954  MEMB      141             0.0000000000
     16161       141  SLPC      C213          -28.1817842303        3.2587297556       -1.8294700311  MEMB      141             0.0000000000
     16162       141  SLPC      H13R          -28.1261261217        3.9026772946       -0.9380528778  MEMB      141             0.0000000000
     16163       141  SLPC      C214          -28.1813965277        1.7823342614       -1.5361306780  MEMB      141             0.0000000000
     16164       141  SLPC      H14R          -27.3990329455        1.5697576046       -0.7722851726  MEMB      141             0.0000000000
     16165       141  SLPC      H14S          -27.8980813086        1.1803678070       -2.4229705818  MEMB      141             0.0000000000
     16166       141  SLPC      C215          -29.5296852571        1.2704960913       -0.9920537199  MEMB      141             0.0000000000
     16167       141  SLPC      H15R          -29.8297886080        1.8617659512       -0.1056129645  MEMB      141             0.0000000000
     16168       141  SLPC      H15S          -29.3736847287        0.2353408495       -0.6536362899  MEMB      141             0.0000000000
     16169       141  SLPC      C216          -30.6979059030        1.1862065751       -1.9838994885  MEMB      141             0.0000000000
     16170       141  SLPC      H16R          -30.4940857771        1.8141414429       -2.8730223475  MEMB      141             0.0000000000
     16171       141  SLPC      H16S          -31.6125718742        1.5914357289       -1.4949210289  MEMB      141             0.0000000000
     16172       141  SLPC      C217          -31.0006173647       -0.2547544068       -2.4212316357  MEMB      141             0.0000000000
     16173       141  SLPC      H17R          -31.3012251219       -0.8467905021       -1.5314638955  MEMB      141             0.0000000000
     16174       141  SLPC      H17S          -30.0755154683       -0.7343865147       -2.8090805763  MEMB      141             0.0000000000
     16175       141  SLPC      C218          -32.0942529247       -0.3169214062       -3.4838750570  MEMB      141             0.0000000000
     16176       141  SLPC      H18R          -31.8473197676        0.3777772060       -4.3160579075  MEMB      141             0.0000000000
     16177       141  SLPC      H18S          -33.0673051259       -0.0155505519       -3.0438602151  MEMB      141             0.0000000000
     16178       141  SLPC      H18T          -32.1949734556       -1.3393125941       -3.9022704538  MEMB      141             0.0000000000
     16179       141  SLPC      C33           -24.8152559687       -0.1646629515      -10.3874047810  MEMB      141             0.0000000000
     16180       141  SLPC      H3X           -24.2553865448        0.6769114488      -10.8536812662  MEMB      141             0.0000000000
     16181       141  SLPC      H3Y           -24.0832109862       -0.8275890914       -9.8782558935  MEMB      141             0.0000000000
     16182       141  SLPC      C34           -25.7613979441        0.3907056739       -9.3199261236  MEMB      141             0.0000000000
     16183       141  SLPC      H4X           -26.4301340611       -0.4361619151       -8.9993552744  MEMB      141             0.0000000000
     16184       141  SLPC      H4Y           -26.4091217495        1.1835269334       -9.7546870569  MEMB      141             0.0000000000
     16185       141  SLPC      C35           -25.0351289845        0.9354404178       -8.0769174482  MEMB      141             0.0000000000
     16186       141  SLPC      H5X           -25.7936553839        1.4211612530       -7.4282660690  MEMB      141             0.0000000000
     16187       141  SLPC      H5Y           -24.3336621593        1.7385966258       -8.3988735003  MEMB      141             0.0000000000
     16188       141  SLPC      C36           -24.2419437580       -0.1167597952       -7.2640045687  MEMB      141             0.0000000000
     16189       141  SLPC      H6X           -24.0923855527        0.2408465922       -6.2215909055  MEMB      141             0.0000000000
     16190       141  SLPC      H6Y           -23.2420968159       -0.1967117700       -7.7284171378  MEMB      141             0.0000000000
     16191       141  SLPC      C37           -24.8189813011       -1.5451573156       -7.2388840248  MEMB      141             0.0000000000
     16192       141  SLPC      H7X           -25.1112457494       -1.8409147010       -8.2671265657  MEMB      141             0.0000000000
     16193       141  SLPC      H7Y           -25.7396645001       -1.5685924859       -6.6229631920  MEMB      141             0.0000000000
     16194       141  SLPC      C38           -23.8111853776       -2.6266778273       -6.8004300418  MEMB      141             0.0000000000
     16195       141  SLPC      H8X           -23.8856000205       -2.7964032481       -5.7060450491  MEMB      141             0.0000000000
     16196       141  SLPC      H8Y           -22.7823553450       -2.2515394574       -7.0003042330  MEMB      141             0.0000000000
     16197       141  SLPC      C39           -23.9481127951       -3.9594280633       -7.5755392944  MEMB      141             0.0000000000
     16198       141  SLPC      H9X           -23.2960474668       -4.7279711473       -7.1075266829  MEMB      141             0.0000000000
     16199       141  SLPC      H9Y           -23.5514260075       -3.7690066715       -8.6023888925  MEMB      141             0.0000000000
     16200       141  SLPC      C310          -25.3672274933       -4.5435471539       -7.7764419803  MEMB      141             0.0000000000
     16201       141  SLPC      H10X          -25.2655810163       -5.3469166747       -8.5443479269  MEMB      141             0.0000000000
     16202       141  SLPC      H10Y          -26.0561505153       -3.7890163654       -8.2077009987  MEMB      141             0.0000000000
     16203       141  SLPC      C311          -26.0476223934       -5.1414567142       -6.5401673597  MEMB      141             0.0000000000
     16204       141  SLPC      H11X          -25.3110951377       -5.7303649824       -5.9571877876  MEMB      141             0.0000000000
     16205       141  SLPC      H11Y          -26.8624588910       -5.8134912751       -6.8663702061  MEMB      141             0.0000000000
     16206       141  SLPC      C312          -26.7113549428       -4.0785904217       -5.6742417347  MEMB      141             0.0000000000
     16207       141  SLPC      H12X          -27.5803922697       -3.6248601315       -6.1984310434  MEMB      141             0.0000000000
     16208       141  SLPC      H12Y          -25.9420208376       -3.2969733200       -5.5425326946  MEMB      141             0.0000000000
     16209       141  SLPC      C313          -27.0825116090       -4.5409736674       -4.2719940366  MEMB      141             0.0000000000
     16210       141  SLPC      H13X          -26.3516275257       -5.3195752645       -3.9560920397  MEMB      141             0.0000000000
     16211       141  SLPC      H13Y          -28.0994758887       -4.9937581438       -4.2507225867  MEMB      141             0.0000000000
     16212       141  SLPC      C314          -26.9898168494       -3.3707155364       -3.2880316151  MEMB      141             0.0000000000
     16213       141  SLPC      H14X          -27.9759758325       -2.8637558796       -3.2732216667  MEMB      141             0.0000000000
     16214       141  SLPC      H14Y          -26.2546285825       -2.6176631120       -3.6529596948  MEMB      141             0.0000000000
     16215       141  SLPC      C315          -26.5179460132       -3.8039279906       -1.8977591397  MEMB      141             0.0000000000
     16216       141  SLPC      H15X          -25.4046612014       -3.8563033455       -1.8938385819  MEMB      141             0.0000000000
     16217       141  SLPC      H15Y          -26.9028981699       -4.8226364273       -1.6730644715  MEMB      141             0.0000000000
     16218       141  SLPC      C316          -26.9720300065       -2.8635106800       -0.7864057748  MEMB      141             0.0000000000
     16219       141  SLPC      H16X          -26.5611044341       -1.8398452075       -0.9394414040  MEMB      141             0.0000000000
     16220       141  SLPC      H16Y          -26.5784401755       -3.2418136410        0.1841283714  MEMB      141             0.0000000000
     16221       141  SLPC      C317          -28.4852906401       -2.7665064202       -0.6617300155  MEMB      141             0.0000000000
     16222       141  SLPC      H17X          -28.9345752883       -3.7817449162       -0.5507545544  MEMB      141             0.0000000000
     16223       141  SLPC      H17Y          -28.9454614329       -2.2963386253       -1.5571880578  MEMB      141             0.0000000000
     16224       141  SLPC      C318          -28.8196171725       -1.9259978818        0.5424956957  MEMB      141             0.0000000000
     16225       141  SLPC      H18X          -29.9171626781       -1.7933319916        0.5915339667  MEMB      141             0.0000000000
     16226       141  SLPC      H18Y          -28.3468007512       -0.9261377492        0.5065734737  MEMB      141             0.0000000000
     16227       141  SLPC      H18Z          -28.4374384346       -2.4044123406        1.4601619281  MEMB      141             0.0000000000
     16228       142  OSM       N              30.6056654594       -0.4403002605      -22.2216172660  MEMB      142             0.0000000000
     16229       142  OSM       C15            30.9807203811       -1.6867308233      -21.5046218589  MEMB      142             0.0000000000
     16230       142  OSM       H15A           31.4618426229       -1.4788668268      -20.5597501966  MEMB      142             0.0000000000
     16231       142  OSM       H15B           31.5701241818       -2.3540192720      -22.1094787959  MEMB      142             0.0000000000
     16232       142  OSM       H15C           30.0698218784       -2.2255202717      -21.2355632657  MEMB      142             0.0000000000
     16233       142  OSM       C14            31.8341430698        0.2425284022      -22.7088078737  MEMB      142             0.0000000000
     16234       142  OSM       H14A           31.5744199396        1.1212258337      -23.2889121925  MEMB      142             0.0000000000
     16235       142  OSM       H14B           32.4465480215       -0.4412430528      -23.2956589709  MEMB      142             0.0000000000
     16236       142  OSM       H14C           32.4290583588        0.5677416810      -21.8605448329  MEMB      142             0.0000000000
     16237       142  OSM       C13            29.7450567784       -0.8732177051      -23.3571818732  MEMB      142             0.0000000000
     16238       142  OSM       H13A           29.2397671213       -0.0304669374      -23.8052859220  MEMB      142             0.0000000000
     16239       142  OSM       H13B           28.9547914380       -1.5339249463      -22.9877902103  MEMB      142             0.0000000000
     16240       142  OSM       H13C           30.3069012246       -1.4405131816      -24.0941952487  MEMB      142             0.0000000000
     16241       142  OSM       C12            29.8051542084        0.5034900760      -21.3044789140  MEMB      142             0.0000000000
     16242       142  OSM       H12A           29.2503761434        1.2068926031      -21.9225442814  MEMB      142             0.0000000000
     16243       142  OSM       H12B           30.4977819991        1.0789206684      -20.7023047195  MEMB      142             0.0000000000
     16244       142  OSM       C11            28.7618775930       -0.0771163268      -20.3172886245  MEMB      142             0.0000000000
     16245       142  OSM       H11A           28.2140716895        0.7727286186      -19.8412738377  MEMB      142             0.0000000000
     16246       142  OSM       H11B           29.2952733435       -0.6308281287      -19.5099283967  MEMB      142             0.0000000000
     16247       142  OSM       P              27.4667920242       -2.3532989852      -20.6221454631  MEMB      142             0.0000000000
     16248       142  OSM       O13            26.7140938352       -2.8902086282      -21.7785811813  MEMB      142             0.0000000000
     16249       142  OSM       O14            28.7349074469       -3.0760319916      -20.3296641132  MEMB      142             0.0000000000
     16250       142  OSM       O11            26.6296873475       -2.2024617047      -19.3174230193  MEMB      142             0.0000000000
     16251       142  OSM       O12            27.8136615242       -0.8667806201      -20.9960470875  MEMB      142             0.0000000000
     16252       142  OSM       C1S            26.6841508347       -3.2424352307      -18.3459047260  MEMB      142             0.0000000000
     16253       142  OSM       H1S            27.2743098740       -4.1508014297      -18.6339713357  MEMB      142             0.0000000000
     16254       142  OSM       H1T            25.6435675647       -3.5946496002      -18.1834623658  MEMB      142             0.0000000000
     16255       142  OSM       NF             26.5697999115       -3.5177003304      -15.9862657652  MEMB      142             0.0000000000
     16256       142  OSM       HNF            25.6470139623       -3.1650546593      -15.8098124986  MEMB      142             0.0000000000
     16257       142  OSM       C2S            27.2440825108       -2.7388921833      -16.9996103372  MEMB      142             0.0000000000
     16258       142  OSM       H2S            28.3362326311       -2.9504459674      -16.9390246365  MEMB      142             0.0000000000
     16259       142  OSM       C3S            27.0448132538       -1.1996311300      -16.7875362630  MEMB      142             0.0000000000
     16260       142  OSM       H3S            26.1085163848       -0.8329239357      -17.2487181251  MEMB      142             0.0000000000
     16261       142  OSM       O3             28.0881999605       -0.3674407150      -17.2681692068  MEMB      142             0.0000000000
     16262       142  OSM       HO3            28.0164687390       -0.4608635409      -18.2221007416  MEMB      142             0.0000000000
     16263       142  OSM       C4S            27.0336754723       -0.9738679776      -15.3241482397  MEMB      142             0.0000000000
     16264       142  OSM       H4S            27.9811905089       -1.2519829204      -14.8457092909  MEMB      142             0.0000000000
     16265       142  OSM       C5S            26.0028268591       -0.5410300146      -14.5930442903  MEMB      142             0.0000000000
     16266       142  OSM       H5S            25.0728750865       -0.2524298252      -15.1064235283  MEMB      142             0.0000000000
     16267       142  OSM       C6S            26.0927577301       -0.3723793944      -13.1041737146  MEMB      142             0.0000000000
     16268       142  OSM       H6S            25.9531024145       -1.3664063460      -12.6204290972  MEMB      142             0.0000000000
     16269       142  OSM       H6T            25.2798621720        0.2853568867      -12.7323673505  MEMB      142             0.0000000000
     16270       142  OSM       C7S            27.4513084190        0.2074085389      -12.6874625720  MEMB      142             0.0000000000
     16271       142  OSM       H7S            27.5653821452        1.1970646337      -13.1645678188  MEMB      142             0.0000000000
     16272       142  OSM       H7T            28.2979563619       -0.4095460713      -13.0585086147  MEMB      142             0.0000000000
     16273       142  OSM       C8S            27.6283551994        0.3560935122      -11.1761089802  MEMB      142             0.0000000000
     16274       142  OSM       H8S            26.6573579151        0.5418376224      -10.6693139032  MEMB      142             0.0000000000
     16275       142  OSM       H8T            28.2868190705        1.2129765110      -10.9827697414  MEMB      142             0.0000000000
     16276       142  OSM       C9S            28.3176747462       -0.8705322512      -10.5988829662  MEMB      142             0.0000000000
     16277       142  OSM       H9S            29.0644381788       -1.2611304202      -11.3328800781  MEMB      142             0.0000000000
     16278       142  OSM       H9T            27.4928449383       -1.6040187359      -10.5025111217  MEMB      142             0.0000000000
     16279       142  OSM       C10S           29.0746011142       -0.6838488585       -9.2738437407  MEMB      142             0.0000000000
     16280       142  OSM       H10S           29.5698166316        0.3082561434       -9.2372005606  MEMB      142             0.0000000000
     16281       142  OSM       H10T           29.8835642306       -1.4560703961       -9.2521973749  MEMB      142             0.0000000000
     16282       142  OSM       C11S           28.1904739754       -0.9147154625       -8.0433118383  MEMB      142             0.0000000000
     16283       142  OSM       H11S           27.5325733821       -1.7805803720       -8.2793772889  MEMB      142             0.0000000000
     16284       142  OSM       H11T           27.5111985701       -0.0566735056       -7.8787760542  MEMB      142             0.0000000000
     16285       142  OSM       C12S           28.9763221326       -1.2431941353       -6.7586547075  MEMB      142             0.0000000000
     16286       142  OSM       H12S           29.4240644602       -0.3154387753       -6.3417455455  MEMB      142             0.0000000000
     16287       142  OSM       H12T           29.8298846703       -1.9113642189       -7.0110916454  MEMB      142             0.0000000000
     16288       142  OSM       C13S           28.0977284662       -1.9515574863       -5.7008620594  MEMB      142             0.0000000000
     16289       142  OSM       H13S           28.5057963724       -2.9354254819       -5.4294688259  MEMB      142             0.0000000000
     16290       142  OSM       H13T           27.1018056497       -2.1463405019       -6.1440730447  MEMB      142             0.0000000000
     16291       142  OSM       C14S           27.9818303896       -1.1148895840       -4.4418274342  MEMB      142             0.0000000000
     16292       142  OSM       H14S           27.4132983187       -0.2162299459       -4.7684635612  MEMB      142             0.0000000000
     16293       142  OSM       H14T           28.9729107701       -0.7286034500       -4.1709072247  MEMB      142             0.0000000000
     16294       142  OSM       C15S           27.2769966363       -1.6482023630       -3.1732399341  MEMB      142             0.0000000000
     16295       142  OSM       H15S           26.2486224946       -1.2858771500       -3.2840416831  MEMB      142             0.0000000000
     16296       142  OSM       H15T           27.7212890896       -1.1478325735       -2.2899721447  MEMB      142             0.0000000000
     16297       142  OSM       C16S           26.9979833472       -3.0954152191       -2.7876568409  MEMB      142             0.0000000000
     16298       142  OSM       H16S           27.8729834481       -3.6585908654       -2.4345375708  MEMB      142             0.0000000000
     16299       142  OSM       H16T           26.4751223762       -3.6354567213       -3.6086000383  MEMB      142             0.0000000000
     16300       142  OSM       C17S           26.1758384754       -3.0806752063       -1.5032912230  MEMB      142             0.0000000000
     16301       142  OSM       H17S           25.5284901182       -2.1818945584       -1.4880195951  MEMB      142             0.0000000000
     16302       142  OSM       H17T           26.8668011861       -3.0152360700       -0.6314140175  MEMB      142             0.0000000000
     16303       142  OSM       C18S           25.2769968925       -4.2744537282       -1.3659009828  MEMB      142             0.0000000000
     16304       142  OSM       H18S           24.7815314643       -4.4861067774       -2.3367240342  MEMB      142             0.0000000000
     16305       142  OSM       H18T           24.5233215332       -4.0272099117       -0.5891825117  MEMB      142             0.0000000000
     16306       142  OSM       H18U           25.7824309911       -5.1984588678       -1.0705143236  MEMB      142             0.0000000000
     16307       142  OSM       C1F            26.7212028238       -4.7934136331      -15.8013152483  MEMB      142             0.0000000000
     16308       142  OSM       OF             27.5614500251       -5.4308904342      -16.4119896256  MEMB      142             0.0000000000
     16309       142  OSM       C2F            25.7440389777       -5.3922123553      -14.8633923214  MEMB      142             0.0000000000
     16310       142  OSM       H2F            25.4309434899       -6.3774417462      -15.2619905669  MEMB      142             0.0000000000
     16311       142  OSM       H2G            24.8370055976       -4.7797625458      -14.7466429037  MEMB      142             0.0000000000
     16312       142  OSM       C3F            26.4275778513       -5.5472820618      -13.5142455998  MEMB      142             0.0000000000
     16313       142  OSM       H3F            27.4963035586       -5.8186569745      -13.6853915055  MEMB      142             0.0000000000
     16314       142  OSM       H3G            25.9277369170       -6.3853775886      -12.9872953790  MEMB      142             0.0000000000
     16315       142  OSM       C4F            26.5125258041       -4.3792721097      -12.5431203340  MEMB      142             0.0000000000
     16316       142  OSM       H4F            25.5204480156       -4.0499201432      -12.1879452483  MEMB      142             0.0000000000
     16317       142  OSM       H4G            27.0618424930       -3.5203579176      -12.9893566837  MEMB      142             0.0000000000
     16318       142  OSM       C5F            27.2708045237       -4.9989862988      -11.3822575034  MEMB      142             0.0000000000
     16319       142  OSM       H5F            28.2360186394       -5.3879795249      -11.7881433204  MEMB      142             0.0000000000
     16320       142  OSM       H5G            26.6897623407       -5.8730664041      -11.0067902843  MEMB      142             0.0000000000
     16321       142  OSM       C6F            27.6335485186       -4.1259478937      -10.2088943068  MEMB      142             0.0000000000
     16322       142  OSM       H6F            26.7316386617       -3.7152560703       -9.6940368192  MEMB      142             0.0000000000
     16323       142  OSM       H6G            28.3094918267       -3.3256671687      -10.5506066568  MEMB      142             0.0000000000
     16324       142  OSM       C7F            28.4563443158       -5.0177872402       -9.3016558285  MEMB      142             0.0000000000
     16325       142  OSM       H7F            29.2993147426       -5.4489259936       -9.8882697700  MEMB      142             0.0000000000
     16326       142  OSM       H7G            27.7367645991       -5.8396261276       -9.0716981998  MEMB      142             0.0000000000
     16327       142  OSM       C8F            29.0339637981       -4.3240682261       -8.0737206285  MEMB      142             0.0000000000
     16328       142  OSM       H8F            28.3559766973       -3.4981589487       -7.8167668325  MEMB      142             0.0000000000
     16329       142  OSM       H8G            30.0544100289       -3.9143039308       -8.2733552307  MEMB      142             0.0000000000
     16330       142  OSM       C9F            28.9800634897       -5.3604264243       -6.9990299535  MEMB      142             0.0000000000
     16331       142  OSM       H9F            28.3558753138       -6.2183651624       -7.2772929003  MEMB      142             0.0000000000
     16332       142  OSM       C10F           29.5733267411       -5.4305825139       -5.8095945053  MEMB      142             0.0000000000
     16333       142  OSM       H10F           29.3803947975       -6.3137917737       -5.1909731386  MEMB      142             0.0000000000
     16334       142  OSM       C11F           30.4985700476       -4.4819401651       -5.1366880910  MEMB      142             0.0000000000
     16335       142  OSM       H11F           30.5083438602       -3.5095773634       -5.6663566537  MEMB      142             0.0000000000
     16336       142  OSM       H11G           31.5233269085       -4.8881717268       -5.1481625002  MEMB      142             0.0000000000
     16337       142  OSM       C12F           30.0017015548       -4.2154498629       -3.6976338240  MEMB      142             0.0000000000
     16338       142  OSM       H12F           28.9083194678       -4.2170225225       -3.8239149716  MEMB      142             0.0000000000
     16339       142  OSM       H12G           30.2547847067       -3.2062462869       -3.3495446214  MEMB      142             0.0000000000
     16340       142  OSM       C13F           30.3188907259       -5.2566311884       -2.6117124130  MEMB      142             0.0000000000
     16341       142  OSM       H13F           30.3146938671       -6.1981892002       -3.1764662981  MEMB      142             0.0000000000
     16342       142  OSM       H13G           29.4815586917       -5.2313831042       -1.8851294475  MEMB      142             0.0000000000
     16343       142  OSM       C14F           31.5644818749       -5.1325653664       -1.7216960405  MEMB      142             0.0000000000
     16344       142  OSM       H14F           32.0064701040       -4.1651649491       -1.9727855963  MEMB      142             0.0000000000
     16345       142  OSM       H14G           32.2851652993       -5.9479067999       -1.9354892862  MEMB      142             0.0000000000
     16346       142  OSM       C15F           31.3726401569       -5.1448712609       -0.2020271376  MEMB      142             0.0000000000
     16347       142  OSM       H15F           32.3255793973       -5.4955638051        0.2689601123  MEMB      142             0.0000000000
     16348       142  OSM       H15G           30.5746289979       -5.8579520672        0.0852987021  MEMB      142             0.0000000000
     16349       142  OSM       C16F           31.1165141375       -3.7332465155        0.3203562126  MEMB      142             0.0000000000
     16350       142  OSM       H16F           32.0059918938       -3.1027878854        0.0824426883  MEMB      142             0.0000000000
     16351       142  OSM       H16G           31.0116184472       -3.7504094530        1.4278227661  MEMB      142             0.0000000000
     16352       142  OSM       C17F           29.9079459677       -3.0479233292       -0.3165718022  MEMB      142             0.0000000000
     16353       142  OSM       H17F           28.9857895307       -3.6359945367       -0.1090507204  MEMB      142             0.0000000000
     16354       142  OSM       H17G           30.0244226546       -2.9689950261       -1.4076678112  MEMB      142             0.0000000000
     16355       142  OSM       C18F           29.7926087528       -1.6380047459        0.2056455364  MEMB      142             0.0000000000
     16356       142  OSM       H18F           30.6110351362       -0.9792290652       -0.1380196051  MEMB      142             0.0000000000
     16357       142  OSM       H18G           29.9283280192       -1.7578855759        1.2892654394  MEMB      142             0.0000000000
     16358       142  OSM       H18H           28.8074140105       -1.1740396170       -0.0095944480  MEMB      142             0.0000000000
     16359       143  SAPS      N               5.3495395947      -25.9803762461      -19.9249419089  MEMB      143             0.0000000000
     16360       143  SAPS      HN1             5.5246656185      -25.5420021850      -20.8536927983  MEMB      143             0.0000000000
     16361       143  SAPS      HN2             4.6959393922      -25.3985726786      -19.3715795186  MEMB      143             0.0000000000
     16362       143  SAPS      HN3             6.2572463507      -26.1725369139      -19.4286610395  MEMB      143             0.0000000000
     16363       143  SAPS      C12             4.8094751448      -27.3431403395      -20.1971875373  MEMB      143             0.0000000000
     16364       143  SAPS      H12A            4.4623702142      -27.7856135346      -19.2741929103  MEMB      143             0.0000000000
     16365       143  SAPS      C13             3.6729468726      -27.3882916254      -21.2374643082  MEMB      143             0.0000000000
     16366       143  SAPS      O13A            3.9305742282      -26.9728384218      -22.4009015150  MEMB      143             0.0000000000
     16367       143  SAPS      O13B            2.7032006273      -28.1462814357      -20.9804530201  MEMB      143             0.0000000000
     16368       143  SAPS      C11             6.0106372245      -28.1432949410      -20.7694806477  MEMB      143             0.0000000000
     16369       143  SAPS      H11A            6.1760357609      -27.8449076884      -21.8275699025  MEMB      143             0.0000000000
     16370       143  SAPS      H11B            5.7202734333      -29.2289962582      -20.7941633001  MEMB      143             0.0000000000
     16371       143  SAPS      P               7.9277142710      -29.0367501382      -19.2763691716  MEMB      143             0.0000000000
     16372       143  SAPS      O13             8.2852920665      -30.1023822027      -20.2365820438  MEMB      143             0.0000000000
     16373       143  SAPS      O14             8.9155950853      -28.4624284698      -18.3548776852  MEMB      143             0.0000000000
     16374       143  SAPS      O12             7.2254488138      -27.8548408572      -20.0422462343  MEMB      143             0.0000000000
     16375       143  SAPS      O11             6.6700090128      -29.5222504479      -18.5039396034  MEMB      143             0.0000000000
     16376       143  SAPS      C1              6.1312229271      -28.8287720165      -17.3948121931  MEMB      143             0.0000000000
     16377       143  SAPS      HA              6.1876340731      -27.7232914639      -17.5028763601  MEMB      143             0.0000000000
     16378       143  SAPS      HB              5.0637024307      -29.1332504683      -17.3220194541  MEMB      143             0.0000000000
     16379       143  SAPS      C2              6.8426031667      -29.2844769583      -16.1166767025  MEMB      143             0.0000000000
     16380       143  SAPS      HS              7.8424518622      -28.7845454207      -16.0934272752  MEMB      143             0.0000000000
     16381       143  SAPS      O21             6.9339767800      -30.7064118985      -16.2452760694  MEMB      143             0.0000000000
     16382       143  SAPS      C21             8.0453612494      -31.2350962981      -15.8022220013  MEMB      143             0.0000000000
     16383       143  SAPS      O22             8.9261114517      -30.6518064790      -15.1974204576  MEMB      143             0.0000000000
     16384       143  SAPS      C22             7.8752434166      -32.7372009792      -15.9418984935  MEMB      143             0.0000000000
     16385       143  SAPS      H2R             7.1299403073      -32.9595372341      -16.7303228337  MEMB      143             0.0000000000
     16386       143  SAPS      H2S             8.8263221608      -33.2045147458      -16.2606907714  MEMB      143             0.0000000000
     16387       143  SAPS      C3              6.0230396503      -28.8927399236      -14.8645286871  MEMB      143             0.0000000000
     16388       143  SAPS      HX              5.0692795743      -29.4645714509      -14.9019168989  MEMB      143             0.0000000000
     16389       143  SAPS      HY              5.7614920489      -27.8114057284      -14.9153683022  MEMB      143             0.0000000000
     16390       143  SAPS      O31             6.6845049852      -29.2107351981      -13.6309958917  MEMB      143             0.0000000000
     16391       143  SAPS      C31             7.6178821098      -28.3511784705      -13.2738766839  MEMB      143             0.0000000000
     16392       143  SAPS      O32             8.0099008260      -27.4054810205      -13.9300258697  MEMB      143             0.0000000000
     16393       143  SAPS      C32             7.9541967813      -28.6053569924      -11.7961745224  MEMB      143             0.0000000000
     16394       143  SAPS      H2X             8.8613259507      -28.0150086370      -11.5629232065  MEMB      143             0.0000000000
     16395       143  SAPS      H2Y             8.1907601955      -29.6806042934      -11.6652846207  MEMB      143             0.0000000000
     16396       143  SAPS      C23             7.4436042260      -33.2995910897      -14.5792048572  MEMB      143             0.0000000000
     16397       143  SAPS      H3R             8.3862697991      -33.6348283262      -14.0811551579  MEMB      143             0.0000000000
     16398       143  SAPS      H3S             6.7958742062      -34.1837277339      -14.7732459195  MEMB      143             0.0000000000
     16399       143  SAPS      C24             6.7015376524      -32.3296851190      -13.6295902559  MEMB      143             0.0000000000
     16400       143  SAPS      H4R             5.7414490753      -32.0000159806      -14.0850114549  MEMB      143             0.0000000000
     16401       143  SAPS      H4S             7.3212406345      -31.4317746697      -13.4348514891  MEMB      143             0.0000000000
     16402       143  SAPS      C25             6.5191272643      -33.0307522457      -12.3228256405  MEMB      143             0.0000000000
     16403       143  SAPS      H5R             7.1407289983      -33.9245229484      -12.2290779341  MEMB      143             0.0000000000
     16404       143  SAPS      C26             5.8396286442      -32.6777856836      -11.2325834366  MEMB      143             0.0000000000
     16405       143  SAPS      H6R             5.9050236529      -33.3845756098      -10.4116378210  MEMB      143             0.0000000000
     16406       143  SAPS      C27             5.0187091375      -31.4581824789      -10.9225819489  MEMB      143             0.0000000000
     16407       143  SAPS      H7R             4.2025807472      -31.3564560938      -11.6722246092  MEMB      143             0.0000000000
     16408       143  SAPS      H7S             5.6778065928      -30.5892681109      -11.0660746800  MEMB      143             0.0000000000
     16409       143  SAPS      C28             4.4336647716      -31.3984982999       -9.5211244735  MEMB      143             0.0000000000
     16410       143  SAPS      H8R             3.3446319980      -31.2283244901       -9.4978470439  MEMB      143             0.0000000000
     16411       143  SAPS      C29             5.0801502894      -31.5693980456       -8.3393041120  MEMB      143             0.0000000000
     16412       143  SAPS      H9R             4.4987870266      -31.5102478992       -7.4037867067  MEMB      143             0.0000000000
     16413       143  SAPS      C210            6.5531856946      -31.8600410081       -8.1327546826  MEMB      143             0.0000000000
     16414       143  SAPS      H10R            6.9116534326      -31.2293238730       -7.2915539687  MEMB      143             0.0000000000
     16415       143  SAPS      H10S            7.1179071685      -31.5032655056       -9.0194247439  MEMB      143             0.0000000000
     16416       143  SAPS      C211            6.9150260250      -33.3198118164       -7.9281622456  MEMB      143             0.0000000000
     16417       143  SAPS      H11R            6.6145693773      -33.9939888311       -8.7373023004  MEMB      143             0.0000000000
     16418       143  SAPS      C212            7.6563797581      -33.8831932628       -6.9609863413  MEMB      143             0.0000000000
     16419       143  SAPS      H12R            7.7422828090      -34.9824944063       -6.9477257229  MEMB      143             0.0000000000
     16420       143  SAPS      C213            8.3152609829      -33.1610649473       -5.8240090657  MEMB      143             0.0000000000
     16421       143  SAPS      H13R            7.7544502507      -32.2327611013       -5.6357674973  MEMB      143             0.0000000000
     16422       143  SAPS      H13S            9.3417309945      -32.8339591559       -6.1023604415  MEMB      143             0.0000000000
     16423       143  SAPS      C214            8.3711301775      -33.9551262324       -4.5525155954  MEMB      143             0.0000000000
     16424       143  SAPS      H14R            9.1571307627      -34.7269311548       -4.4957554729  MEMB      143             0.0000000000
     16425       143  SAPS      C215            7.4681492482      -33.8784153951       -3.5652436599  MEMB      143             0.0000000000
     16426       143  SAPS      H15R            7.5845249383      -34.5754943145       -2.7162714096  MEMB      143             0.0000000000
     16427       143  SAPS      C216            6.2187692540      -33.0228356481       -3.4865403821  MEMB      143             0.0000000000
     16428       143  SAPS      H16R            6.0030920433      -32.8219529118       -2.4126898677  MEMB      143             0.0000000000
     16429       143  SAPS      H16S            5.5410512581      -33.7588831586       -3.9202061133  MEMB      143             0.0000000000
     16430       143  SAPS      C217            5.6388573370      -31.8110155166       -4.2945781915  MEMB      143             0.0000000000
     16431       143  SAPS      H17R            5.6758598311      -32.0350865504       -5.3770650668  MEMB      143             0.0000000000
     16432       143  SAPS      H17S            6.2823830575      -30.9255137967       -4.1158700707  MEMB      143             0.0000000000
     16433       143  SAPS      C218            4.1743549294      -31.3897496362       -3.9187099335  MEMB      143             0.0000000000
     16434       143  SAPS      H18R            3.8516793308      -30.5400957643       -4.5506410900  MEMB      143             0.0000000000
     16435       143  SAPS      H18S            4.3198978697      -31.0218510110       -2.8891030162  MEMB      143             0.0000000000
     16436       143  SAPS      C219            3.0346916330      -32.4488960981       -3.8399091151  MEMB      143             0.0000000000
     16437       143  SAPS      H19R            3.1960591875      -32.9094065562       -2.8445978300  MEMB      143             0.0000000000
     16438       143  SAPS      H19S            3.1705421837      -33.2231178318       -4.6245828032  MEMB      143             0.0000000000
     16439       143  SAPS      C220            1.5375190175      -32.0671851250       -3.7549508583  MEMB      143             0.0000000000
     16440       143  SAPS      H20R            0.9644514979      -32.4889213758       -4.6082000948  MEMB      143             0.0000000000
     16441       143  SAPS      H20S            1.3612164666      -30.9759200971       -3.7030135072  MEMB      143             0.0000000000
     16442       143  SAPS      H20T            1.0992071755      -32.5275008348       -2.8345245373  MEMB      143             0.0000000000
     16443       143  SAPS      C33             6.7735546603      -28.1706323824      -10.8840088404  MEMB      143             0.0000000000
     16444       143  SAPS      H3X             5.8378053485      -28.6647261006      -11.2153067349  MEMB      143             0.0000000000
     16445       143  SAPS      H3Y             6.5931458668      -27.0818130214      -11.0314609484  MEMB      143             0.0000000000
     16446       143  SAPS      C34             6.9845213551      -28.4160776702       -9.3721976055  MEMB      143             0.0000000000
     16447       143  SAPS      H4X             7.4645163039      -29.3935260168       -9.1780026216  MEMB      143             0.0000000000
     16448       143  SAPS      H4Y             5.9869208677      -28.4165847831       -8.8732885017  MEMB      143             0.0000000000
     16449       143  SAPS      C35             7.8074344374      -27.2562274175       -8.8078356924  MEMB      143             0.0000000000
     16450       143  SAPS      H5X             7.1509642545      -26.3715568308       -8.9491463710  MEMB      143             0.0000000000
     16451       143  SAPS      H5Y             8.7192906574      -27.1610610280       -9.4417497228  MEMB      143             0.0000000000
     16452       143  SAPS      C36             8.2676937376      -27.2247837257       -7.3461664130  MEMB      143             0.0000000000
     16453       143  SAPS      H6X             8.8045080311      -26.2649284287       -7.1752387385  MEMB      143             0.0000000000
     16454       143  SAPS      H6Y             9.0024919591      -28.0168370636       -7.1433807203  MEMB      143             0.0000000000
     16455       143  SAPS      C37             7.1937872414      -27.3822221638       -6.2838364203  MEMB      143             0.0000000000
     16456       143  SAPS      H7X             7.7340650495      -27.5168329138       -5.3226537900  MEMB      143             0.0000000000
     16457       143  SAPS      H7Y             6.5962559022      -28.3055099886       -6.4468636252  MEMB      143             0.0000000000
     16458       143  SAPS      C38             6.3560435113      -26.1394539493       -6.0162557387  MEMB      143             0.0000000000
     16459       143  SAPS      H8X             6.1924260228      -25.4828858940       -6.8963501994  MEMB      143             0.0000000000
     16460       143  SAPS      H8Y             6.9401492836      -25.5340497948       -5.2749210870  MEMB      143             0.0000000000
     16461       143  SAPS      C39             5.0323880280      -26.5502195384       -5.3851900045  MEMB      143             0.0000000000
     16462       143  SAPS      H9X             4.2542957037      -26.7384912674       -6.1594133844  MEMB      143             0.0000000000
     16463       143  SAPS      H9Y             5.1806512705      -27.5064264690       -4.8270733794  MEMB      143             0.0000000000
     16464       143  SAPS      C310            4.5775854818      -25.4729332220       -4.4144356028  MEMB      143             0.0000000000
     16465       143  SAPS      H10X            4.0110866886      -24.7156275874       -4.9982749368  MEMB      143             0.0000000000
     16466       143  SAPS      H10Y            5.4648680348      -24.9512557478       -3.9832821163  MEMB      143             0.0000000000
     16467       143  SAPS      C311            3.7761147515      -26.0481024678       -3.2506669732  MEMB      143             0.0000000000
     16468       143  SAPS      H11X            3.3122900889      -27.0244508679       -3.5230404142  MEMB      143             0.0000000000
     16469       143  SAPS      H11Y            2.9428081271      -25.3405138222       -3.0449764657  MEMB      143             0.0000000000
     16470       143  SAPS      C312            4.6596872077      -26.2297379709       -2.0016534445  MEMB      143             0.0000000000
     16471       143  SAPS      H12X            5.5577490722      -25.5748811054       -2.0598946961  MEMB      143             0.0000000000
     16472       143  SAPS      H12Y            5.0290058733      -27.2788958430       -1.9763752878  MEMB      143             0.0000000000
     16473       143  SAPS      C313            3.9320297715      -25.8493090129       -0.7088727390  MEMB      143             0.0000000000
     16474       143  SAPS      H13X            2.8529531624      -25.7836463083       -0.9601738932  MEMB      143             0.0000000000
     16475       143  SAPS      H13Y            4.2557940832      -24.8387867861       -0.3789654442  MEMB      143             0.0000000000
     16476       143  SAPS      C314            4.1122555564      -26.8346797059        0.4509710322  MEMB      143             0.0000000000
     16477       143  SAPS      H14X            5.0883159279      -26.6612271174        0.9529572398  MEMB      143             0.0000000000
     16478       143  SAPS      H14Y            4.1440288258      -27.8628358874        0.0367774498  MEMB      143             0.0000000000
     16479       143  SAPS      C315            2.9553247777      -26.7515751125        1.4605039100  MEMB      143             0.0000000000
     16480       143  SAPS      H15X            2.2364202023      -26.0056811825        1.0793216902  MEMB      143             0.0000000000
     16481       143  SAPS      H15Y            3.3055342110      -26.3477891530        2.4310593401  MEMB      143             0.0000000000
     16482       143  SAPS      C316            2.2069358510      -28.0796504578        1.6583988009  MEMB      143             0.0000000000
     16483       143  SAPS      H16X            2.1955888227      -28.3743657337        2.7237190248  MEMB      143             0.0000000000
     16484       143  SAPS      H16Y            2.7894884681      -28.9025105077        1.2179512110  MEMB      143             0.0000000000
     16485       143  SAPS      C317            0.7453737349      -28.0799715428        1.1638221360  MEMB      143             0.0000000000
     16486       143  SAPS      H17X            0.1538036396      -27.5397338540        1.9359113797  MEMB      143             0.0000000000
     16487       143  SAPS      H17Y            0.3981729039      -29.1379562730        1.1696997861  MEMB      143             0.0000000000
     16488       143  SAPS      C318            0.4045413016      -27.4698259795       -0.2111277267  MEMB      143             0.0000000000
     16489       143  SAPS      H18X            0.4165731908      -28.2473702154       -1.0037588211  MEMB      143             0.0000000000
     16490       143  SAPS      H18Y            1.1098291385      -26.6758690671       -0.5062031368  MEMB      143             0.0000000000
     16491       143  SAPS      H18Z           -0.6097848100      -27.0132774533       -0.1954388243  MEMB      143             0.0000000000
     16492       144  SLPC      N             -10.7279917315       26.8990967980      -15.2849416027  MEMB      144             0.0000000000
     16493       144  SLPC      C13           -10.6426819070       25.5734877737      -15.9817606047  MEMB      144             0.0000000000
     16494       144  SLPC      H13A          -10.5798669783       24.7455051335      -15.2899759510  MEMB      144             0.0000000000
     16495       144  SLPC      H13B          -11.5285113457       25.4448182304      -16.6141845499  MEMB      144             0.0000000000
     16496       144  SLPC      H13C           -9.8019079120       25.5460728176      -16.6742936901  MEMB      144             0.0000000000
     16497       144  SLPC      C14            -9.4460755172       27.1205423483      -14.5545210627  MEMB      144             0.0000000000
     16498       144  SLPC      H14A           -9.3791439405       28.1132162323      -14.1230271495  MEMB      144             0.0000000000
     16499       144  SLPC      H14B           -9.3246746422       26.4050403928      -13.7496184351  MEMB      144             0.0000000000
     16500       144  SLPC      H14C           -8.6000366520       26.9869307734      -15.2306937892  MEMB      144             0.0000000000
     16501       144  SLPC      C15           -11.8863789539       26.8308543866      -14.3348637508  MEMB      144             0.0000000000
     16502       144  SLPC      H15A          -11.9742014103       27.7157117018      -13.7203679082  MEMB      144             0.0000000000
     16503       144  SLPC      H15B          -12.8133413275       26.6968774030      -14.8963932954  MEMB      144             0.0000000000
     16504       144  SLPC      H15C          -11.7795502777       25.9791581710      -13.6678886172  MEMB      144             0.0000000000
     16505       144  SLPC      C12           -10.8834399932       27.9776820501      -16.3570178091  MEMB      144             0.0000000000
     16506       144  SLPC      H12A          -10.0436033559       27.8795162725      -17.0523775203  MEMB      144             0.0000000000
     16507       144  SLPC      H12B          -10.7578880204       28.9571351623      -15.9226884550  MEMB      144             0.0000000000
     16508       144  SLPC      C11           -12.1586294954       27.9564369860      -17.2396903803  MEMB      144             0.0000000000
     16509       144  SLPC      H11A          -12.0751266473       28.8167526813      -17.9529870444  MEMB      144             0.0000000000
     16510       144  SLPC      H11B          -13.0779307773       28.1081495461      -16.6294730255  MEMB      144             0.0000000000
     16511       144  SLPC      P             -13.0314438433       26.5187420363      -19.2661803633  MEMB      144             0.0000000000
     16512       144  SLPC      O13           -12.9836883113       27.7503361728      -20.1022893474  MEMB      144             0.0000000000
     16513       144  SLPC      O14           -12.5738116992       25.2402183139      -19.8669576876  MEMB      144             0.0000000000
     16514       144  SLPC      O12           -12.2214637532       26.7160117708      -17.9316847388  MEMB      144             0.0000000000
     16515       144  SLPC      O11           -14.5072087753       26.3038935679      -18.6582530987  MEMB      144             0.0000000000
     16516       144  SLPC      C1            -14.7910863326       25.3655461889      -17.6009327713  MEMB      144             0.0000000000
     16517       144  SLPC      HA            -15.2404781211       24.4543256141      -18.0566337300  MEMB      144             0.0000000000
     16518       144  SLPC      HB            -13.8779665712       25.0365881057      -17.0616319736  MEMB      144             0.0000000000
     16519       144  SLPC      C2            -15.8192060312       25.8596508861      -16.5073243573  MEMB      144             0.0000000000
     16520       144  SLPC      HS            -16.6429206096       26.3914715945      -17.0390721048  MEMB      144             0.0000000000
     16521       144  SLPC      O21           -15.1757393808       26.7416237697      -15.5492922026  MEMB      144             0.0000000000
     16522       144  SLPC      C21           -15.9910161099       27.3816651421      -14.7030800679  MEMB      144             0.0000000000
     16523       144  SLPC      O22           -17.2037851322       27.3353637013      -14.7009678715  MEMB      144             0.0000000000
     16524       144  SLPC      C22           -15.1576359027       28.2544570441      -13.7591176679  MEMB      144             0.0000000000
     16525       144  SLPC      H2R           -14.3681102428       27.6264242059      -13.3047710002  MEMB      144             0.0000000000
     16526       144  SLPC      H2S           -14.6841875031       29.0319294195      -14.3941921843  MEMB      144             0.0000000000
     16527       144  SLPC      C3            -16.4673261038       24.6308892513      -15.7767588349  MEMB      144             0.0000000000
     16528       144  SLPC      HX            -17.0354817531       24.0358414316      -16.5322006224  MEMB      144             0.0000000000
     16529       144  SLPC      HY            -17.2206385714       25.0189124882      -15.0567811328  MEMB      144             0.0000000000
     16530       144  SLPC      O31           -15.4853877802       23.7921518053      -15.1223443942  MEMB      144             0.0000000000
     16531       144  SLPC      C31           -16.0236112749       22.9845553443      -14.2143308910  MEMB      144             0.0000000000
     16532       144  SLPC      O32           -17.1879723818       22.9534827963      -13.8754910813  MEMB      144             0.0000000000
     16533       144  SLPC      C32           -14.9614988725       22.0664258084      -13.6356644211  MEMB      144             0.0000000000
     16534       144  SLPC      H2X           -14.4311133269       21.5477601217      -14.4578231371  MEMB      144             0.0000000000
     16535       144  SLPC      H2Y           -15.5207837052       21.3238306878      -13.0210714367  MEMB      144             0.0000000000
     16536       144  SLPC      C23           -16.0019342083       28.9319860472      -12.6533189367  MEMB      144             0.0000000000
     16537       144  SLPC      H3R           -17.0278460256       29.1766560786      -13.0102495008  MEMB      144             0.0000000000
     16538       144  SLPC      H3S           -15.5277153631       29.8957850143      -12.3715217679  MEMB      144             0.0000000000
     16539       144  SLPC      C24           -16.0565871561       28.1509299627      -11.3370947873  MEMB      144             0.0000000000
     16540       144  SLPC      H4R           -16.7501889570       28.6868147165      -10.6456058083  MEMB      144             0.0000000000
     16541       144  SLPC      H4S           -15.0491627059       28.1461506318      -10.8603523451  MEMB      144             0.0000000000
     16542       144  SLPC      C25           -16.5496934673       26.7120716414      -11.4603372785  MEMB      144             0.0000000000
     16543       144  SLPC      H5R           -15.9035289258       26.1025971869      -12.1289610688  MEMB      144             0.0000000000
     16544       144  SLPC      H5S           -17.5730648417       26.7128723146      -11.9030961322  MEMB      144             0.0000000000
     16545       144  SLPC      C26           -16.6181403883       26.0634583229      -10.0778157948  MEMB      144             0.0000000000
     16546       144  SLPC      H6R           -17.5660967792       25.5146722774      -10.0112885680  MEMB      144             0.0000000000
     16547       144  SLPC      H6S           -16.5978562279       26.8375013180       -9.2809467531  MEMB      144             0.0000000000
     16548       144  SLPC      C27           -15.4605567089       25.1220650706       -9.8003623232  MEMB      144             0.0000000000
     16549       144  SLPC      H7R           -14.5727205801       25.7702992118       -9.7110399401  MEMB      144             0.0000000000
     16550       144  SLPC      H7S           -15.3413780120       24.4406191930      -10.6615572577  MEMB      144             0.0000000000
     16551       144  SLPC      C28           -15.5357704287       24.3603627094       -8.4786282424  MEMB      144             0.0000000000
     16552       144  SLPC      H8R           -16.0690320020       24.9799033598       -7.7309073739  MEMB      144             0.0000000000
     16553       144  SLPC      H8S           -14.4929840210       24.2377146332       -8.1084113005  MEMB      144             0.0000000000
     16554       144  SLPC      C29           -16.2104179822       23.0400889804       -8.6943384718  MEMB      144             0.0000000000
     16555       144  SLPC      H9R           -16.9981550664       23.0459571987       -9.4666890449  MEMB      144             0.0000000000
     16556       144  SLPC      C210          -15.8006982346       21.8694632272       -8.1884430224  MEMB      144             0.0000000000
     16557       144  SLPC      H10R          -16.3404229853       20.9887425038       -8.5022845755  MEMB      144             0.0000000000
     16558       144  SLPC      C211          -14.6079733788       21.5867486991       -7.3118874292  MEMB      144             0.0000000000
     16559       144  SLPC      H11R          -13.9784604630       22.4934712786       -7.2397644786  MEMB      144             0.0000000000
     16560       144  SLPC      H11S          -13.9945869025       20.8451619490       -7.8663502403  MEMB      144             0.0000000000
     16561       144  SLPC      C212          -14.8492930208       21.0190857409       -5.9302998550  MEMB      144             0.0000000000
     16562       144  SLPC      H12R          -15.6757773305       20.2943285207       -5.8431902394  MEMB      144             0.0000000000
     16563       144  SLPC      C213          -14.1178724699       21.2994240546       -4.8291392966  MEMB      144             0.0000000000
     16564       144  SLPC      H13R          -14.3755791561       20.8116929273       -3.8777456396  MEMB      144             0.0000000000
     16565       144  SLPC      C214          -12.9269527428       22.2250718180       -4.7468470165  MEMB      144             0.0000000000
     16566       144  SLPC      H14R          -12.4601063983       22.3545701821       -5.7457833960  MEMB      144             0.0000000000
     16567       144  SLPC      H14S          -12.1417237748       21.8038330234       -4.0779873279  MEMB      144             0.0000000000
     16568       144  SLPC      C215          -13.3145320837       23.6208189589       -4.2280456147  MEMB      144             0.0000000000
     16569       144  SLPC      H15R          -14.2318077847       23.9775963693       -4.7489287661  MEMB      144             0.0000000000
     16570       144  SLPC      H15S          -12.4977844063       24.3355238612       -4.4838035973  MEMB      144             0.0000000000
     16571       144  SLPC      C216          -13.5167024480       23.6621550161       -2.7074302224  MEMB      144             0.0000000000
     16572       144  SLPC      H16R          -12.5582732999       23.3723698294       -2.2194481005  MEMB      144             0.0000000000
     16573       144  SLPC      H16S          -14.2985972432       22.9365669783       -2.3921235299  MEMB      144             0.0000000000
     16574       144  SLPC      C217          -13.9033989041       25.0564742378       -2.2134566603  MEMB      144             0.0000000000
     16575       144  SLPC      H17R          -14.9975746918       25.2056308958       -2.3556921563  MEMB      144             0.0000000000
     16576       144  SLPC      H17S          -13.3856650359       25.8076420281       -2.8527196382  MEMB      144             0.0000000000
     16577       144  SLPC      C218          -13.5222575710       25.3179295596       -0.7540545740  MEMB      144             0.0000000000
     16578       144  SLPC      H18R          -12.4218552747       25.2556709426       -0.6409912800  MEMB      144             0.0000000000
     16579       144  SLPC      H18S          -13.9835853488       24.5683422889       -0.0790761588  MEMB      144             0.0000000000
     16580       144  SLPC      H18T          -13.8392317245       26.3317919766       -0.4305334745  MEMB      144             0.0000000000
     16581       144  SLPC      C33           -13.9472802338       22.7874550059      -12.7406265875  MEMB      144             0.0000000000
     16582       144  SLPC      H3X           -14.4944848961       23.4666617195      -12.0647015477  MEMB      144             0.0000000000
     16583       144  SLPC      H3Y           -13.2588009234       23.4113253301      -13.3530119118  MEMB      144             0.0000000000
     16584       144  SLPC      C34           -13.1620482024       21.7865261068      -11.8881628232  MEMB      144             0.0000000000
     16585       144  SLPC      H4X           -12.7634852754       20.9888879700      -12.5427076687  MEMB      144             0.0000000000
     16586       144  SLPC      H4Y           -13.8509241185       21.2981516178      -11.1605317405  MEMB      144             0.0000000000
     16587       144  SLPC      C35           -12.0032203769       22.4491225266      -11.1405234187  MEMB      144             0.0000000000
     16588       144  SLPC      H5X           -11.4630921082       23.1395551078      -11.8234962467  MEMB      144             0.0000000000
     16589       144  SLPC      H5Y           -11.2746472748       21.6731665742      -10.8098649211  MEMB      144             0.0000000000
     16590       144  SLPC      C36           -12.5182285235       23.1946573858       -9.9140340565  MEMB      144             0.0000000000
     16591       144  SLPC      H6X           -12.3254090110       22.5511662519       -9.0232575221  MEMB      144             0.0000000000
     16592       144  SLPC      H6Y           -13.6169696945       23.2930068536       -9.9786058928  MEMB      144             0.0000000000
     16593       144  SLPC      C37           -11.9028516096       24.5795285774       -9.6686357012  MEMB      144             0.0000000000
     16594       144  SLPC      H7X           -10.8034757343       24.4779891307       -9.6614810596  MEMB      144             0.0000000000
     16595       144  SLPC      H7Y           -12.2256211635       24.8716693560       -8.6442946520  MEMB      144             0.0000000000
     16596       144  SLPC      C38           -12.1918431078       25.7051514484      -10.6725941242  MEMB      144             0.0000000000
     16597       144  SLPC      H8X           -13.2226712374       25.6693802535      -11.0681980959  MEMB      144             0.0000000000
     16598       144  SLPC      H8Y           -11.5407859456       25.5368431325      -11.5599912717  MEMB      144             0.0000000000
     16599       144  SLPC      C39           -11.8577561509       27.0899690437      -10.0671235552  MEMB      144             0.0000000000
     16600       144  SLPC      H9X           -12.1424441859       27.9022440275      -10.7662195588  MEMB      144             0.0000000000
     16601       144  SLPC      H9Y           -10.7616714747       27.0937606847       -9.9421239293  MEMB      144             0.0000000000
     16602       144  SLPC      C310          -12.3758783557       27.4091690876       -8.6488860794  MEMB      144             0.0000000000
     16603       144  SLPC      H10X          -11.8049310939       26.7911607090       -7.9149083004  MEMB      144             0.0000000000
     16604       144  SLPC      H10Y          -13.4450603983       27.1323126005       -8.5641006840  MEMB      144             0.0000000000
     16605       144  SLPC      C311          -12.1773726960       28.8779440797       -8.2245431466  MEMB      144             0.0000000000
     16606       144  SLPC      H11X          -12.8799826916       29.5361280250       -8.7790823963  MEMB      144             0.0000000000
     16607       144  SLPC      H11Y          -11.1401621164       29.1951734326       -8.4817513768  MEMB      144             0.0000000000
     16608       144  SLPC      C312          -12.3495246938       29.0744813547       -6.7110672654  MEMB      144             0.0000000000
     16609       144  SLPC      H12X          -12.1542223959       30.1353263505       -6.4305855877  MEMB      144             0.0000000000
     16610       144  SLPC      H12Y          -11.5766875021       28.4545694199       -6.1998791141  MEMB      144             0.0000000000
     16611       144  SLPC      C313          -13.7253555622       28.6723185406       -6.1662015600  MEMB      144             0.0000000000
     16612       144  SLPC      H13X          -14.1437449337       27.7868250439       -6.6900382184  MEMB      144             0.0000000000
     16613       144  SLPC      H13Y          -14.4304265777       29.5176699862       -6.3340923813  MEMB      144             0.0000000000
     16614       144  SLPC      C314          -13.6307230174       28.3425589692       -4.6733592592  MEMB      144             0.0000000000
     16615       144  SLPC      H14X          -12.8878414501       29.0322280228       -4.2232936212  MEMB      144             0.0000000000
     16616       144  SLPC      H14Y          -13.2267221240       27.3164428743       -4.5386164279  MEMB      144             0.0000000000
     16617       144  SLPC      C315          -14.9627573509       28.5313231309       -3.9472129357  MEMB      144             0.0000000000
     16618       144  SLPC      H15X          -15.6696405412       27.7352976893       -4.2239058383  MEMB      144             0.0000000000
     16619       144  SLPC      H15Y          -15.3997834028       29.5048051032       -4.2619564432  MEMB      144             0.0000000000
     16620       144  SLPC      C316          -14.8518129865       28.5106681204       -2.4247056098  MEMB      144             0.0000000000
     16621       144  SLPC      H16X          -14.0259803682       29.1739418008       -2.1143505119  MEMB      144             0.0000000000
     16622       144  SLPC      H16Y          -14.6163281531       27.4838780322       -2.0953474543  MEMB      144             0.0000000000
     16623       144  SLPC      C317          -16.1142089949       29.0289722786       -1.7352334481  MEMB      144             0.0000000000
     16624       144  SLPC      H17X          -16.8821243957       29.2371918075       -2.5149104930  MEMB      144             0.0000000000
     16625       144  SLPC      H17Y          -15.8403103163       30.0039447197       -1.2707401220  MEMB      144             0.0000000000
     16626       144  SLPC      C318          -16.7163012022       28.1051851657       -0.6742130284  MEMB      144             0.0000000000
     16627       144  SLPC      H18X          -16.7143188452       28.6045299528        0.3181113526  MEMB      144             0.0000000000
     16628       144  SLPC      H18Y          -16.1672700346       27.1455150119       -0.5833903511  MEMB      144             0.0000000000
     16629       144  SLPC      H18Z          -17.7656261477       27.8605385676       -0.9486129579  MEMB      144             0.0000000000
     16630       145  SAPS      N              26.7104622874       17.9764218792      -19.8572146446  MEMB      145             0.0000000000
     16631       145  SAPS      HN1            26.7450185049       18.2862776545      -18.8615381433  MEMB      145             0.0000000000
     16632       145  SAPS      HN2            26.8412794695       16.9454497020      -19.9110750355  MEMB      145             0.0000000000
     16633       145  SAPS      HN3            27.4660881467       18.4314719757      -20.4092609721  MEMB      145             0.0000000000
     16634       145  SAPS      C12            25.3859687574       18.3427103491      -20.4688703894  MEMB      145             0.0000000000
     16635       145  SAPS      H12A           25.1067573032       19.3078552684      -20.0874064488  MEMB      145             0.0000000000
     16636       145  SAPS      C13            25.3202300048       18.4510965982      -22.0227835280  MEMB      145             0.0000000000
     16637       145  SAPS      O13A           26.3455731765       18.0830637421      -22.6551263048  MEMB      145             0.0000000000
     16638       145  SAPS      O13B           24.5067791102       19.2891520009      -22.5040265311  MEMB      145             0.0000000000
     16639       145  SAPS      C11            24.3449354020       17.2972263496      -20.0011596511  MEMB      145             0.0000000000
     16640       145  SAPS      H11A           24.5167887238       17.0772383501      -18.9217876599  MEMB      145             0.0000000000
     16641       145  SAPS      H11B           24.5047251342       16.3291303715      -20.5260883114  MEMB      145             0.0000000000
     16642       145  SAPS      P              21.9421171636       17.8663408241      -19.1204120268  MEMB      145             0.0000000000
     16643       145  SAPS      O13            20.9377144697       18.8907768927      -19.4868930314  MEMB      145             0.0000000000
     16644       145  SAPS      O14            21.5372100401       16.4765683648      -18.8390016715  MEMB      145             0.0000000000
     16645       145  SAPS      O12            23.0262933064       17.7971686957      -20.2594585041  MEMB      145             0.0000000000
     16646       145  SAPS      O11            22.9162577788       18.4195478417      -18.0134302183  MEMB      145             0.0000000000
     16647       145  SAPS      C1             23.2078261440       19.8119588572      -17.9634915522  MEMB      145             0.0000000000
     16648       145  SAPS      HA             24.1656077763       20.0487176469      -18.4577081237  MEMB      145             0.0000000000
     16649       145  SAPS      HB             22.4359193765       20.4531409499      -18.4618241972  MEMB      145             0.0000000000
     16650       145  SAPS      C2             23.2094751432       20.1762043026      -16.4770675883  MEMB      145             0.0000000000
     16651       145  SAPS      HS             23.2244304012       21.2872629893      -16.4160458819  MEMB      145             0.0000000000
     16652       145  SAPS      O21            24.2946660298       19.6278909642      -15.6944263925  MEMB      145             0.0000000000
     16653       145  SAPS      C21            25.2829921831       18.9587808170      -16.2469252080  MEMB      145             0.0000000000
     16654       145  SAPS      O22            25.9533095747       19.3232567471      -17.2056576265  MEMB      145             0.0000000000
     16655       145  SAPS      C22            25.5683032206       17.6350282105      -15.5033014273  MEMB      145             0.0000000000
     16656       145  SAPS      H2R            26.6485318240       17.6870201365      -15.2720068984  MEMB      145             0.0000000000
     16657       145  SAPS      H2S            24.9921609180       17.6017119755      -14.5622940907  MEMB      145             0.0000000000
     16658       145  SAPS      C3             21.8536046613       19.6761657097      -15.8763097901  MEMB      145             0.0000000000
     16659       145  SAPS      HX             21.0685032753       19.8483248461      -16.6458631662  MEMB      145             0.0000000000
     16660       145  SAPS      HY             21.5748610669       20.2783021125      -14.9926383005  MEMB      145             0.0000000000
     16661       145  SAPS      O31            21.8392479257       18.2632512853      -15.5853927418  MEMB      145             0.0000000000
     16662       145  SAPS      C31            22.3287538583       17.9514937575      -14.4080859700  MEMB      145             0.0000000000
     16663       145  SAPS      O32            22.8350849314       18.7274690270      -13.6173016355  MEMB      145             0.0000000000
     16664       145  SAPS      C32            21.9891470859       16.4853669542      -14.0706141513  MEMB      145             0.0000000000
     16665       145  SAPS      H2X            22.8616321008       15.8588137310      -14.1683954139  MEMB      145             0.0000000000
     16666       145  SAPS      H2Y            21.3298555017       16.1336057943      -14.8935494576  MEMB      145             0.0000000000
     16667       145  SAPS      C23            25.4534035315       16.3203534263      -16.3224525460  MEMB      145             0.0000000000
     16668       145  SAPS      H3R            26.3263700078       16.2848789520      -17.0171667800  MEMB      145             0.0000000000
     16669       145  SAPS      H3S            24.5152694726       16.3345312246      -16.9209572153  MEMB      145             0.0000000000
     16670       145  SAPS      C24            25.4633433672       15.0016260245      -15.4932616314  MEMB      145             0.0000000000
     16671       145  SAPS      H4R            25.4915662680       14.1770222979      -16.2365853583  MEMB      145             0.0000000000
     16672       145  SAPS      H4S            24.4824390356       14.8739540703      -15.0103224560  MEMB      145             0.0000000000
     16673       145  SAPS      C25            26.6242200580       14.7730415381      -14.5426791994  MEMB      145             0.0000000000
     16674       145  SAPS      H5R            27.5940723438       14.9282026239      -15.0470810168  MEMB      145             0.0000000000
     16675       145  SAPS      C26            26.6905198448       14.5142714972      -13.2009862419  MEMB      145             0.0000000000
     16676       145  SAPS      H6R            27.7007921981       14.3783660503      -12.8003878570  MEMB      145             0.0000000000
     16677       145  SAPS      C27            25.6511786253       14.3485371336      -12.0975715912  MEMB      145             0.0000000000
     16678       145  SAPS      H7R            26.1012448813       14.3075780157      -11.0815544165  MEMB      145             0.0000000000
     16679       145  SAPS      H7S            25.0879045160       13.4008525324      -12.2444215762  MEMB      145             0.0000000000
     16680       145  SAPS      C28            24.7495448576       15.5226961545      -12.2650512833  MEMB      145             0.0000000000
     16681       145  SAPS      H8R            24.2909703389       15.3835129926      -13.2255745219  MEMB      145             0.0000000000
     16682       145  SAPS      C29            24.2780667401       16.5880553839      -11.5997657828  MEMB      145             0.0000000000
     16683       145  SAPS      H9R            23.5713308299       17.1676928705      -12.1968656580  MEMB      145             0.0000000000
     16684       145  SAPS      C210           24.4366987201       17.2401811062      -10.2555828004  MEMB      145             0.0000000000
     16685       145  SAPS      H10R           25.4816204588       17.1246816955       -9.9676395765  MEMB      145             0.0000000000
     16686       145  SAPS      H10S           23.8231330173       16.7228970536       -9.4847618032  MEMB      145             0.0000000000
     16687       145  SAPS      C211           24.0240955844       18.7053434292      -10.3641107192  MEMB      145             0.0000000000
     16688       145  SAPS      H11R           24.1091051338       19.1238339523      -11.3801081017  MEMB      145             0.0000000000
     16689       145  SAPS      C212           23.5316448097       19.5707257470       -9.4571025487  MEMB      145             0.0000000000
     16690       145  SAPS      H12R           23.3125705889       20.5846349584       -9.8152885413  MEMB      145             0.0000000000
     16691       145  SAPS      C213           23.2070949699       19.3665613134       -8.0067306118  MEMB      145             0.0000000000
     16692       145  SAPS      H13R           22.8310878383       18.3260608663       -7.9722507152  MEMB      145             0.0000000000
     16693       145  SAPS      H13S           22.3216497579       19.9971150244       -7.9239703708  MEMB      145             0.0000000000
     16694       145  SAPS      C214           23.9082045594       19.6811144535       -6.6841859328  MEMB      145             0.0000000000
     16695       145  SAPS      H14R           24.3350508119       18.7911813697       -6.1856471139  MEMB      145             0.0000000000
     16696       145  SAPS      C215           24.0514492765       20.8622961155       -6.0299445521  MEMB      145             0.0000000000
     16697       145  SAPS      H15R           24.5302346010       20.8456265840       -5.0546242493  MEMB      145             0.0000000000
     16698       145  SAPS      C216           23.6219748851       22.2778508484       -6.3022089281  MEMB      145             0.0000000000
     16699       145  SAPS      H16R           23.5609361719       22.4764085447       -7.3906629946  MEMB      145             0.0000000000
     16700       145  SAPS      H16S           24.4159102846       22.9562333197       -5.9129822198  MEMB      145             0.0000000000
     16701       145  SAPS      C217           22.3154321708       22.7083025400       -5.5952902828  MEMB      145             0.0000000000
     16702       145  SAPS      H17R           21.4655493409       22.1877626471       -6.0893671803  MEMB      145             0.0000000000
     16703       145  SAPS      H17S           22.1493703113       23.7923078149       -5.7803717584  MEMB      145             0.0000000000
     16704       145  SAPS      C218           22.2077403355       22.4373320735       -4.0718062567  MEMB      145             0.0000000000
     16705       145  SAPS      H18R           22.0117591720       21.3566018493       -3.9243501297  MEMB      145             0.0000000000
     16706       145  SAPS      H18S           21.2933797852       22.9649245525       -3.7101163024  MEMB      145             0.0000000000
     16707       145  SAPS      C219           23.3916045229       22.8549241016       -3.1684029485  MEMB      145             0.0000000000
     16708       145  SAPS      H19R           22.9852378613       23.5416763342       -2.3891538799  MEMB      145             0.0000000000
     16709       145  SAPS      H19S           24.1376152725       23.4346219051       -3.7501872110  MEMB      145             0.0000000000
     16710       145  SAPS      C220           24.0972914618       21.7080484185       -2.4234345310  MEMB      145             0.0000000000
     16711       145  SAPS      H20R           23.3626173427       21.0324121541       -1.9423009962  MEMB      145             0.0000000000
     16712       145  SAPS      H20S           24.7752373604       22.1002852369       -1.6360899984  MEMB      145             0.0000000000
     16713       145  SAPS      H20T           24.7067075435       21.0885604774       -3.1016683486  MEMB      145             0.0000000000
     16714       145  SAPS      C33            21.1776273785       16.3702099438      -12.7313247620  MEMB      145             0.0000000000
     16715       145  SAPS      H3X            20.3164333894       15.7631999128      -13.0375867747  MEMB      145             0.0000000000
     16716       145  SAPS      H3Y            20.8783706172       17.4014209599      -12.4517829773  MEMB      145             0.0000000000
     16717       145  SAPS      C34            21.5550919597       15.6706168042      -11.4045431965  MEMB      145             0.0000000000
     16718       145  SAPS      H4X            22.0211615644       16.4393381040      -10.7586857703  MEMB      145             0.0000000000
     16719       145  SAPS      H4Y            22.2542053556       14.8239924472      -11.5277535747  MEMB      145             0.0000000000
     16720       145  SAPS      C35            20.3798626597       15.2037010872      -10.5301101193  MEMB      145             0.0000000000
     16721       145  SAPS      H5X            19.6450474482       14.5729657743      -11.0563382611  MEMB      145             0.0000000000
     16722       145  SAPS      H5Y            19.8565947449       16.0997593891      -10.1677767432  MEMB      145             0.0000000000
     16723       145  SAPS      C36            20.8510656006       14.5612124570       -9.2466712113  MEMB      145             0.0000000000
     16724       145  SAPS      H6X            21.7096142513       13.8954705489       -9.4944451834  MEMB      145             0.0000000000
     16725       145  SAPS      H6Y            20.0554803498       13.9252661511       -8.7985064420  MEMB      145             0.0000000000
     16726       145  SAPS      C37            21.2588567321       15.6717397094       -8.2699512665  MEMB      145             0.0000000000
     16727       145  SAPS      H7X            20.3920439388       15.8679431961       -7.5961262765  MEMB      145             0.0000000000
     16728       145  SAPS      H7Y            21.4857145406       16.6250857127       -8.7915236802  MEMB      145             0.0000000000
     16729       145  SAPS      C38            22.4947065293       15.1999547880       -7.5233935984  MEMB      145             0.0000000000
     16730       145  SAPS      H8X            23.2345647625       14.7544242878       -8.2223915904  MEMB      145             0.0000000000
     16731       145  SAPS      H8Y            22.0212381132       14.4049521445       -6.9372585798  MEMB      145             0.0000000000
     16732       145  SAPS      C39            23.1881975497       16.1752049570       -6.5670420612  MEMB      145             0.0000000000
     16733       145  SAPS      H9X            22.3503733857       16.7803751700       -6.1791947524  MEMB      145             0.0000000000
     16734       145  SAPS      H9Y            23.9011361879       16.8289360441       -7.1072509039  MEMB      145             0.0000000000
     16735       145  SAPS      C310           23.9343350084       15.4530070437       -5.4298776645  MEMB      145             0.0000000000
     16736       145  SAPS      H10X           24.1119365665       14.4229590795       -5.8187875335  MEMB      145             0.0000000000
     16737       145  SAPS      H10Y           23.2716316272       15.3396644611       -4.5394482291  MEMB      145             0.0000000000
     16738       145  SAPS      C311           25.3364985688       15.9245496140       -4.9770743185  MEMB      145             0.0000000000
     16739       145  SAPS      H11X           25.3312055554       16.9248639108       -4.4853064319  MEMB      145             0.0000000000
     16740       145  SAPS      H11Y           26.0241927606       15.9721659300       -5.8505790213  MEMB      145             0.0000000000
     16741       145  SAPS      C312           25.8092181848       14.8265047906       -3.9989336324  MEMB      145             0.0000000000
     16742       145  SAPS      H12X           25.7831031264       13.8768857168       -4.5797482771  MEMB      145             0.0000000000
     16743       145  SAPS      H12Y           25.0324204061       14.7441473455       -3.2072841435  MEMB      145             0.0000000000
     16744       145  SAPS      C313           27.1945778864       14.8482912168       -3.3273658821  MEMB      145             0.0000000000
     16745       145  SAPS      H13X           27.8647641439       14.1423548849       -3.8638223130  MEMB      145             0.0000000000
     16746       145  SAPS      H13Y           27.0634818293       14.4471090269       -2.2949445057  MEMB      145             0.0000000000
     16747       145  SAPS      C314           27.8973914111       16.1900275666       -3.2044662992  MEMB      145             0.0000000000
     16748       145  SAPS      H14X           27.6264995367       16.8227170462       -4.0735627824  MEMB      145             0.0000000000
     16749       145  SAPS      H14Y           29.0016528948       16.0471234108       -3.2307241720  MEMB      145             0.0000000000
     16750       145  SAPS      C315           27.4980301638       16.8920597548       -1.9115687143  MEMB      145             0.0000000000
     16751       145  SAPS      H15X           27.2241344061       16.1910116458       -1.0935298801  MEMB      145             0.0000000000
     16752       145  SAPS      H15Y           26.5929222021       17.4620099584       -2.1936961448  MEMB      145             0.0000000000
     16753       145  SAPS      C316           28.5150284334       17.8788533469       -1.3710073599  MEMB      145             0.0000000000
     16754       145  SAPS      H16X           29.2062976747       18.1736690537       -2.1933471295  MEMB      145             0.0000000000
     16755       145  SAPS      H16Y           29.1381320403       17.4194241126       -0.5736097118  MEMB      145             0.0000000000
     16756       145  SAPS      C317           27.7982687420       19.1264135612       -0.8698522153  MEMB      145             0.0000000000
     16757       145  SAPS      H17X           27.7636216254       19.1329562666        0.2425113509  MEMB      145             0.0000000000
     16758       145  SAPS      H17Y           26.7553917247       19.1728496365       -1.2505095102  MEMB      145             0.0000000000
     16759       145  SAPS      C318           28.4631937513       20.3700853303       -1.3730806724  MEMB      145             0.0000000000
     16760       145  SAPS      H18X           29.2632618862       20.5527088113       -0.6500611555  MEMB      145             0.0000000000
     16761       145  SAPS      H18Y           27.7920329153       21.2503889981       -1.4153469368  MEMB      145             0.0000000000
     16762       145  SAPS      H18Z           28.9439277483       20.2113890351       -2.3639775331  MEMB      145             0.0000000000
     16763       146  CHL1      C3            -15.8912459247      -24.7101154562      -17.5495226621  MEMB      146             0.0000000000
     16764       146  CHL1      H3            -14.8218588143      -25.0246260307      -17.4823803069  MEMB      146             0.0000000000
     16765       146  CHL1      O3            -16.2559572908      -24.6541567102      -18.9167503994  MEMB      146             0.0000000000
     16766       146  CHL1      H3'           -16.3123900776      -25.5749140988      -19.2025645788  MEMB      146             0.0000000000
     16767       146  CHL1      C4            -16.7801737006      -25.7279255867      -16.8298232808  MEMB      146             0.0000000000
     16768       146  CHL1      H4A           -17.8481132242      -25.4455107836      -16.9573870987  MEMB      146             0.0000000000
     16769       146  CHL1      H4B           -16.6406357172      -26.7104082950      -17.3338813939  MEMB      146             0.0000000000
     16770       146  CHL1      C5            -16.4151497249      -25.7922823019      -15.3626642094  MEMB      146             0.0000000000
     16771       146  CHL1      C6            -16.0171354926      -26.9448468896      -14.8111648950  MEMB      146             0.0000000000
     16772       146  CHL1      H6            -15.9980106931      -27.8656963452      -15.4111025782  MEMB      146             0.0000000000
     16773       146  CHL1      C7            -15.6443994803      -27.0790883347      -13.3718377454  MEMB      146             0.0000000000
     16774       146  CHL1      H7A           -16.1487267076      -27.9649343548      -12.9315792591  MEMB      146             0.0000000000
     16775       146  CHL1      H7B           -14.5479871314      -27.2383784728      -13.2970562070  MEMB      146             0.0000000000
     16776       146  CHL1      C8            -16.0451429282      -25.8506343136      -12.5162135927  MEMB      146             0.0000000000
     16777       146  CHL1      H8            -17.1329748841      -25.9313060420      -12.2926364311  MEMB      146             0.0000000000
     16778       146  CHL1      C14           -15.2403643282      -25.8539565019      -11.2439852507  MEMB      146             0.0000000000
     16779       146  CHL1      H14           -14.1967291641      -25.5661707072      -11.5548982433  MEMB      146             0.0000000000
     16780       146  CHL1      C15           -15.0277484077      -27.2129300695      -10.5738714518  MEMB      146             0.0000000000
     16781       146  CHL1      H15A          -15.8904554108      -27.8921807005      -10.6922391490  MEMB      146             0.0000000000
     16782       146  CHL1      H15B          -14.1297227159      -27.6718960557      -11.0376757975  MEMB      146             0.0000000000
     16783       146  CHL1      C16           -14.7836242262      -26.8773013747       -9.1154875203  MEMB      146             0.0000000000
     16784       146  CHL1      H16A          -15.6511965206      -27.2399332473       -8.5194779935  MEMB      146             0.0000000000
     16785       146  CHL1      H16B          -13.8588279221      -27.3576749430       -8.7369004579  MEMB      146             0.0000000000
     16786       146  CHL1      C17           -14.7147776474      -25.3238840241       -9.0431039322  MEMB      146             0.0000000000
     16787       146  CHL1      H17           -13.6783763775      -25.0337836154       -9.3277316717  MEMB      146             0.0000000000
     16788       146  CHL1      C13           -15.6122161665      -24.8097815609      -10.1969670684  MEMB      146             0.0000000000
     16789       146  CHL1      C18           -17.0834159178      -24.8803480654       -9.7306088031  MEMB      146             0.0000000000
     16790       146  CHL1      H18A          -17.2951038376      -24.0381645213       -9.0395351847  MEMB      146             0.0000000000
     16791       146  CHL1      H18B          -17.7863634952      -24.7953382835      -10.5829641456  MEMB      146             0.0000000000
     16792       146  CHL1      H18C          -17.2872115395      -25.8193659584       -9.1835188842  MEMB      146             0.0000000000
     16793       146  CHL1      C12           -15.3253202130      -23.4424344060      -10.8654775201  MEMB      146             0.0000000000
     16794       146  CHL1      H12A          -15.6799083652      -22.6102831143      -10.2270564505  MEMB      146             0.0000000000
     16795       146  CHL1      H12B          -14.2302631726      -23.3304887754      -11.0103246181  MEMB      146             0.0000000000
     16796       146  CHL1      C11           -16.0291739810      -23.3214662516      -12.2454715052  MEMB      146             0.0000000000
     16797       146  CHL1      H11A          -17.1200408387      -23.2437037728      -12.0488061416  MEMB      146             0.0000000000
     16798       146  CHL1      H11B          -15.7048434036      -22.3767796867      -12.7271572875  MEMB      146             0.0000000000
     16799       146  CHL1      C9            -15.7649953978      -24.5259097545      -13.2090439802  MEMB      146             0.0000000000
     16800       146  CHL1      H9            -14.6630259415      -24.5133950442      -13.4007234977  MEMB      146             0.0000000000
     16801       146  CHL1      C10           -16.4234939055      -24.4423777084      -14.6077870635  MEMB      146             0.0000000000
     16802       146  CHL1      C19           -17.8960750927      -24.0209511549      -14.4277330852  MEMB      146             0.0000000000
     16803       146  CHL1      H19A          -17.9289312708      -22.9786511448      -14.0602723247  MEMB      146             0.0000000000
     16804       146  CHL1      H19B          -18.4587813215      -24.0494664837      -15.3793130467  MEMB      146             0.0000000000
     16805       146  CHL1      H19C          -18.4190025668      -24.6704141236      -13.6948985499  MEMB      146             0.0000000000
     16806       146  CHL1      C1            -15.6596681934      -23.3688478196      -15.4341726684  MEMB      146             0.0000000000
     16807       146  CHL1      H1A           -15.8260379240      -22.3721884511      -14.9746789583  MEMB      146             0.0000000000
     16808       146  CHL1      H1B           -14.5685690646      -23.5866643304      -15.3777212770  MEMB      146             0.0000000000
     16809       146  CHL1      C2            -16.0558594065      -23.3258849159      -16.9166309162  MEMB      146             0.0000000000
     16810       146  CHL1      H2A           -15.4110364318      -22.6018423380      -17.4586860123  MEMB      146             0.0000000000
     16811       146  CHL1      H2B           -17.1150405522      -23.0052073133      -17.0063144032  MEMB      146             0.0000000000
     16812       146  CHL1      C20           -14.9248755401      -24.8656276834       -7.6044139094  MEMB      146             0.0000000000
     16813       146  CHL1      H20           -15.9834966003      -25.0139900731       -7.2934237780  MEMB      146             0.0000000000
     16814       146  CHL1      C21           -14.5846153231      -23.3842290051       -7.5414521834  MEMB      146             0.0000000000
     16815       146  CHL1      H21A          -15.1612216909      -22.7964913395       -8.2760884792  MEMB      146             0.0000000000
     16816       146  CHL1      H21B          -13.5026236433      -23.2956853406       -7.7657036248  MEMB      146             0.0000000000
     16817       146  CHL1      H21C          -14.7899472163      -22.9444183666       -6.5455380154  MEMB      146             0.0000000000
     16818       146  CHL1      C22           -14.0185507009      -25.6980434803       -6.6502469878  MEMB      146             0.0000000000
     16819       146  CHL1      H22A          -14.5379837101      -26.6652807478       -6.4730119933  MEMB      146             0.0000000000
     16820       146  CHL1      H22B          -13.0480517982      -25.9300698722       -7.1454739086  MEMB      146             0.0000000000
     16821       146  CHL1      C23           -13.6731084195      -25.0653904782       -5.2956418837  MEMB      146             0.0000000000
     16822       146  CHL1      H23A          -12.6809478632      -24.5655785916       -5.3598454792  MEMB      146             0.0000000000
     16823       146  CHL1      H23B          -14.4002786819      -24.2691851981       -5.0381721809  MEMB      146             0.0000000000
     16824       146  CHL1      C24           -13.6707535852      -26.1070988030       -4.1679182531  MEMB      146             0.0000000000
     16825       146  CHL1      H24A          -14.2965093703      -26.9850072322       -4.4449778318  MEMB      146             0.0000000000
     16826       146  CHL1      H24B          -12.6395393082      -26.4787861815       -3.9902925132  MEMB      146             0.0000000000
     16827       146  CHL1      C25           -14.2848653116      -25.5562665604       -2.8753800587  MEMB      146             0.0000000000
     16828       146  CHL1      H25           -13.8412059570      -24.5530227033       -2.6698231245  MEMB      146             0.0000000000
     16829       146  CHL1      C26           -15.8042577183      -25.3788283237       -3.0806992958  MEMB      146             0.0000000000
     16830       146  CHL1      H26A          -16.0505162049      -25.2941068721       -4.1599807090  MEMB      146             0.0000000000
     16831       146  CHL1      H26B          -16.3641256772      -26.2529279087       -2.6981779745  MEMB      146             0.0000000000
     16832       146  CHL1      H26C          -16.1708278433      -24.4547088435       -2.5890837428  MEMB      146             0.0000000000
     16833       146  CHL1      C27           -13.9106481816      -26.4811757481       -1.7061509606  MEMB      146             0.0000000000
     16834       146  CHL1      H27A          -12.8095934099      -26.6092382866       -1.6536636798  MEMB      146             0.0000000000
     16835       146  CHL1      H27B          -14.2212621878      -26.0586456499       -0.7335802409  MEMB      146             0.0000000000
     16836       146  CHL1      H27C          -14.3672615874      -27.4841500938       -1.8485887244  MEMB      146             0.0000000000
     16837       147  CHL1      C3             28.5017427337       11.4069307916      -17.6668675235  MEMB      147             0.0000000000
     16838       147  CHL1      H3             28.1146173350       10.3675239151      -17.5353208329  MEMB      147             0.0000000000
     16839       147  CHL1      O3             28.2065022654       11.8252423618      -18.9901434037  MEMB      147             0.0000000000
     16840       147  CHL1      H3'            28.7935632221       11.3134899756      -19.5542011089  MEMB      147             0.0000000000
     16841       147  CHL1      C4             27.7863614399       12.3512692643      -16.7176986729  MEMB      147             0.0000000000
     16842       147  CHL1      H4A            28.1774857811       13.3812296519      -16.8622426134  MEMB      147             0.0000000000
     16843       147  CHL1      H4B            26.7096689183       12.3774645215      -17.0032337430  MEMB      147             0.0000000000
     16844       147  CHL1      C5             28.0102516091       11.8690501177      -15.3048667461  MEMB      147             0.0000000000
     16845       147  CHL1      C6             26.9623134492       11.4398416324      -14.6056753673  MEMB      147             0.0000000000
     16846       147  CHL1      H6             25.9621555806       11.4790665486      -15.0642454239  MEMB      147             0.0000000000
     16847       147  CHL1      C7             27.0494282681       10.9814916782      -13.1881886120  MEMB      147             0.0000000000
     16848       147  CHL1      H7A            26.2156215167       11.4338276003      -12.6136526299  MEMB      147             0.0000000000
     16849       147  CHL1      H7B            26.9479264479        9.8752103700      -13.1443643840  MEMB      147             0.0000000000
     16850       147  CHL1      C8             28.3591890412       11.3958906878      -12.5055138143  MEMB      147             0.0000000000
     16851       147  CHL1      H8             28.3003968314       12.4874946051      -12.3363049907  MEMB      147             0.0000000000
     16852       147  CHL1      C14            28.4757183031       10.6765169116      -11.1708058633  MEMB      147             0.0000000000
     16853       147  CHL1      H14            28.6392147289        9.5931498238      -11.4069695461  MEMB      147             0.0000000000
     16854       147  CHL1      C15            27.2502900768       10.6931616682      -10.2504657290  MEMB      147             0.0000000000
     16855       147  CHL1      H15A           26.8528460376       11.7290658369      -10.1851883084  MEMB      147             0.0000000000
     16856       147  CHL1      H15B           26.4449835514       10.0185111397      -10.5965301806  MEMB      147             0.0000000000
     16857       147  CHL1      C16            27.8110895566       10.2611824786       -8.8952792427  MEMB      147             0.0000000000
     16858       147  CHL1      H16A           27.4169452680       10.9531816916       -8.1220306003  MEMB      147             0.0000000000
     16859       147  CHL1      H16B           27.5137074999        9.2225715890       -8.6394917896  MEMB      147             0.0000000000
     16860       147  CHL1      C17            29.3590105646       10.3784710275       -8.9768890764  MEMB      147             0.0000000000
     16861       147  CHL1      H17            29.7616589701        9.3478404517       -9.1177771338  MEMB      147             0.0000000000
     16862       147  CHL1      C13            29.6504137714       11.1309609252      -10.3157559384  MEMB      147             0.0000000000
     16863       147  CHL1      C18            29.5543180252       12.6630204278      -10.0631225048  MEMB      147             0.0000000000
     16864       147  CHL1      H18A           29.6458728076       13.2371843504      -11.0034022560  MEMB      147             0.0000000000
     16865       147  CHL1      H18B           28.5912342221       12.9297835217       -9.5874255836  MEMB      147             0.0000000000
     16866       147  CHL1      H18C           30.3654781698       13.0284075849       -9.4099990635  MEMB      147             0.0000000000
     16867       147  CHL1      C12            30.9008262413       10.7274988667      -11.1405150683  MEMB      147             0.0000000000
     16868       147  CHL1      H12A           31.8287582330       11.0161335995      -10.6110828463  MEMB      147             0.0000000000
     16869       147  CHL1      H12B           30.9111396997        9.6192696798      -11.2412912519  MEMB      147             0.0000000000
     16870       147  CHL1      C11            30.8960697927       11.3425572552      -12.5757824348  MEMB      147             0.0000000000
     16871       147  CHL1      H11A           31.0739878535       12.4313845628      -12.4543239853  MEMB      147             0.0000000000
     16872       147  CHL1      H11B           31.7452972073       10.9216033382      -13.1511575539  MEMB      147             0.0000000000
     16873       147  CHL1      C9             29.5764214219       11.1170127024      -13.3898297480  MEMB      147             0.0000000000
     16874       147  CHL1      H9             29.5302372746       10.0211827457      -13.5993387103  MEMB      147             0.0000000000
     16875       147  CHL1      C10            29.4698840744       11.8160677049      -14.7987997484  MEMB      147             0.0000000000
     16876       147  CHL1      C19            30.0450513778       13.2512278849      -14.7049221707  MEMB      147             0.0000000000
     16877       147  CHL1      H19A           29.8775979133       13.8465503838      -15.6265791853  MEMB      147             0.0000000000
     16878       147  CHL1      H19B           29.5874189087       13.8046818253      -13.8645813930  MEMB      147             0.0000000000
     16879       147  CHL1      H19C           31.1413920896       13.2210712197      -14.5408215177  MEMB      147             0.0000000000
     16880       147  CHL1      C1             30.2679619366       11.0174080827      -15.8755311207  MEMB      147             0.0000000000
     16881       147  CHL1      H1A            31.3503383232       11.1134605502      -15.6520487903  MEMB      147             0.0000000000
     16882       147  CHL1      H1B            29.9924882119        9.9438040818      -15.7800181262  MEMB      147             0.0000000000
     16883       147  CHL1      C2             30.0091526391       11.4306094597      -17.3495556873  MEMB      147             0.0000000000
     16884       147  CHL1      H2A            30.5528039102       10.7419970535      -18.0270745407  MEMB      147             0.0000000000
     16885       147  CHL1      H2B            30.3973300175       12.4585801597      -17.5224090658  MEMB      147             0.0000000000
     16886       147  CHL1      C20            29.9071220813       10.8973339251       -7.6310934828  MEMB      147             0.0000000000
     16887       147  CHL1      H20            29.4289276218       11.8750404980       -7.3901259631  MEMB      147             0.0000000000
     16888       147  CHL1      C21            31.4072157687       11.1231313478       -7.7664740260  MEMB      147             0.0000000000
     16889       147  CHL1      H21A           31.8195689802       11.6166027983       -6.8594035718  MEMB      147             0.0000000000
     16890       147  CHL1      H21B           31.6787314264       11.7552951401       -8.6277316612  MEMB      147             0.0000000000
     16891       147  CHL1      H21C           31.8873032088       10.1332861176       -7.9166770124  MEMB      147             0.0000000000
     16892       147  CHL1      C22            29.6176548520        9.9141850239       -6.4442151086  MEMB      147             0.0000000000
     16893       147  CHL1      H22A           28.5305554232        9.9234816446       -6.2181406959  MEMB      147             0.0000000000
     16894       147  CHL1      H22B           29.8864403680        8.8840988735       -6.7703358656  MEMB      147             0.0000000000
     16895       147  CHL1      C23            30.3929385909       10.1827611578       -5.1303117783  MEMB      147             0.0000000000
     16896       147  CHL1      H23A           31.4651842523        9.9455533751       -5.3005283414  MEMB      147             0.0000000000
     16897       147  CHL1      H23B           30.3160196685       11.2577728027       -4.8599914663  MEMB      147             0.0000000000
     16898       147  CHL1      C24            29.9317470300        9.3294193983       -3.9280231234  MEMB      147             0.0000000000
     16899       147  CHL1      H24A           28.8252828969        9.3787986119       -3.8485007531  MEMB      147             0.0000000000
     16900       147  CHL1      H24B           30.2210207660        8.2738289297       -4.1012707290  MEMB      147             0.0000000000
     16901       147  CHL1      C25            30.5439979331        9.7809929600       -2.5816148548  MEMB      147             0.0000000000
     16902       147  CHL1      H25            30.4187443738       10.8900985894       -2.5261932773  MEMB      147             0.0000000000
     16903       147  CHL1      C26            29.8364273090        9.1891830446       -1.3600902910  MEMB      147             0.0000000000
     16904       147  CHL1      H26A           30.1136520980        8.1349000572       -1.1965571652  MEMB      147             0.0000000000
     16905       147  CHL1      H26B           30.1842495758        9.7046467879       -0.4569241390  MEMB      147             0.0000000000
     16906       147  CHL1      H26C           28.7333380814        9.2959860742       -1.4097904973  MEMB      147             0.0000000000
     16907       147  CHL1      C27            32.0405071403        9.4537888608       -2.4851319847  MEMB      147             0.0000000000
     16908       147  CHL1      H27A           32.5997832995       10.3991927931       -2.3424866341  MEMB      147             0.0000000000
     16909       147  CHL1      H27B           32.2580811545        8.7806988810       -1.6275463035  MEMB      147             0.0000000000
     16910       147  CHL1      H27C           32.3972635655        8.9612747309       -3.4157386917  MEMB      147             0.0000000000
     16911       148  CHL1      C3            -28.5715450973       12.7476396793      -17.3591172298  MEMB      148             0.0000000000
     16912       148  CHL1      H3            -27.6767943067       13.3660500472      -17.1036627676  MEMB      148             0.0000000000
     16913       148  CHL1      O3            -28.6427718394       12.6458294005      -18.7734125678  MEMB      148             0.0000000000
     16914       148  CHL1      H3'           -29.5415225077       12.3551650701      -18.9655669567  MEMB      148             0.0000000000
     16915       148  CHL1      C4            -28.4135756966       11.3476148129      -16.7206550331  MEMB      148             0.0000000000
     16916       148  CHL1      H4A           -29.2032312027       10.6697039767      -17.1030488019  MEMB      148             0.0000000000
     16917       148  CHL1      H4B           -27.4424388550       10.9430861304      -17.0851037140  MEMB      148             0.0000000000
     16918       148  CHL1      C5            -28.4519538013       11.3721412827      -15.2036865037  MEMB      148             0.0000000000
     16919       148  CHL1      C6            -27.4501202170       10.8778151683      -14.4591878590  MEMB      148             0.0000000000
     16920       148  CHL1      H6            -26.5994612981       10.3751407533      -14.9470499807  MEMB      148             0.0000000000
     16921       148  CHL1      C7            -27.4272578719       10.9280729698      -12.9604732901  MEMB      148             0.0000000000
     16922       148  CHL1      H7A           -27.0854560626        9.9604421191      -12.5297285308  MEMB      148             0.0000000000
     16923       148  CHL1      H7B           -26.6796622719       11.6939124829      -12.6649790696  MEMB      148             0.0000000000
     16924       148  CHL1      C8            -28.7900950412       11.3169268089      -12.3149619469  MEMB      148             0.0000000000
     16925       148  CHL1      H8            -29.4242265067       10.4064913516      -12.2549241502  MEMB      148             0.0000000000
     16926       148  CHL1      C14           -28.5441988848       11.8944770047      -10.9381659558  MEMB      148             0.0000000000
     16927       148  CHL1      H14           -27.9885240864       12.8455266711      -11.1094832262  MEMB      148             0.0000000000
     16928       148  CHL1      C15           -27.6533629163       11.0978255571       -9.9818363002  MEMB      148             0.0000000000
     16929       148  CHL1      H15A          -28.0716383246       10.0755811287       -9.8537202542  MEMB      148             0.0000000000
     16930       148  CHL1      H15B          -26.6048462083       11.0216922200      -10.3301470819  MEMB      148             0.0000000000
     16931       148  CHL1      C16           -27.7828847309       11.9207371783       -8.7008430396  MEMB      148             0.0000000000
     16932       148  CHL1      H16A          -27.8791924082       11.2495291573       -7.8250579277  MEMB      148             0.0000000000
     16933       148  CHL1      H16B          -26.8891695027       12.5696792209       -8.5696970229  MEMB      148             0.0000000000
     16934       148  CHL1      C17           -29.0464957777       12.8378850641       -8.8691540943  MEMB      148             0.0000000000
     16935       148  CHL1      H17           -28.6577605100       13.8576915637       -9.1107783297  MEMB      148             0.0000000000
     16936       148  CHL1      C13           -29.7650008651       12.3440881994      -10.1437220899  MEMB      148             0.0000000000
     16937       148  CHL1      C18           -30.6519497378       11.1176908592       -9.8216706930  MEMB      148             0.0000000000
     16938       148  CHL1      H18A          -30.9469459800       10.5870014395      -10.7481914831  MEMB      148             0.0000000000
     16939       148  CHL1      H18B          -30.1251957991       10.3987507929       -9.1654583339  MEMB      148             0.0000000000
     16940       148  CHL1      H18C          -31.5834800272       11.4348923115       -9.3131322744  MEMB      148             0.0000000000
     16941       148  CHL1      C12           -30.5297767453       13.4028541006      -10.9699315400  MEMB      148             0.0000000000
     16942       148  CHL1      H12A          -31.4814246703       13.6988088245      -10.4877248825  MEMB      148             0.0000000000
     16943       148  CHL1      H12B          -29.9024308317       14.3154992176      -11.0623386407  MEMB      148             0.0000000000
     16944       148  CHL1      C11           -30.8263892316       12.8701565839      -12.3817887718  MEMB      148             0.0000000000
     16945       148  CHL1      H11A          -31.5395288214       12.0226625392      -12.3007459875  MEMB      148             0.0000000000
     16946       148  CHL1      H11B          -31.3307655422       13.6746230795      -12.9527584916  MEMB      148             0.0000000000
     16947       148  CHL1      C9            -29.5241934487       12.3988808066      -13.0996833960  MEMB      148             0.0000000000
     16948       148  CHL1      H9            -28.8460112357       13.2773132357      -13.0490714566  MEMB      148             0.0000000000
     16949       148  CHL1      C10           -29.6659527841       12.1033293522      -14.6034094417  MEMB      148             0.0000000000
     16950       148  CHL1      C19           -30.9072988300       11.1994246022      -14.7858696044  MEMB      148             0.0000000000
     16951       148  CHL1      H19A          -30.8329503971       10.3108267813      -14.1216200675  MEMB      148             0.0000000000
     16952       148  CHL1      H19B          -31.8409524370       11.7413075953      -14.5356872890  MEMB      148             0.0000000000
     16953       148  CHL1      H19C          -31.0017780331       10.8403285493      -15.8280943483  MEMB      148             0.0000000000
     16954       148  CHL1      C1            -29.8123542715       13.4771375487      -15.3159035274  MEMB      148             0.0000000000
     16955       148  CHL1      H1A           -30.7145649570       13.9872361914      -14.9303204808  MEMB      148             0.0000000000
     16956       148  CHL1      H1B           -28.9229140879       14.0828808405      -15.0372934191  MEMB      148             0.0000000000
     16957       148  CHL1      C2            -29.8335963777       13.4456233755      -16.8450406134  MEMB      148             0.0000000000
     16958       148  CHL1      H2A           -29.8836710401       14.4853027171      -17.2402163832  MEMB      148             0.0000000000
     16959       148  CHL1      H2B           -30.7477931799       12.9042828994      -17.1646752909  MEMB      148             0.0000000000
     16960       148  CHL1      C20           -29.8393656708       12.9619999597       -7.5713712864  MEMB      148             0.0000000000
     16961       148  CHL1      H20           -30.1810160346       11.9454948199       -7.2707872325  MEMB      148             0.0000000000
     16962       148  CHL1      C21           -31.0844089188       13.8538016887       -7.7726820513  MEMB      148             0.0000000000
     16963       148  CHL1      H21A          -30.7936074907       14.8520590024       -8.1676191963  MEMB      148             0.0000000000
     16964       148  CHL1      H21B          -31.6288026392       13.9805303526       -6.8174122265  MEMB      148             0.0000000000
     16965       148  CHL1      H21C          -31.8027536034       13.3864603889       -8.4698397673  MEMB      148             0.0000000000
     16966       148  CHL1      C22           -28.9504588773       13.5178854849       -6.4276594087  MEMB      148             0.0000000000
     16967       148  CHL1      H22A          -27.9085464947       13.1420097912       -6.4948502401  MEMB      148             0.0000000000
     16968       148  CHL1      H22B          -28.8937066176       14.6228214518       -6.5442275821  MEMB      148             0.0000000000
     16969       148  CHL1      C23           -29.4455501541       13.1630351327       -5.0199558424  MEMB      148             0.0000000000
     16970       148  CHL1      H23A          -28.9433934424       13.8400491774       -4.2928804284  MEMB      148             0.0000000000
     16971       148  CHL1      H23B          -30.5389003179       13.3441719202       -4.9540084875  MEMB      148             0.0000000000
     16972       148  CHL1      C24           -29.1969706550       11.7086205120       -4.5986452159  MEMB      148             0.0000000000
     16973       148  CHL1      H24A          -29.8163184541       11.0439694309       -5.2415012598  MEMB      148             0.0000000000
     16974       148  CHL1      H24B          -28.1334241142       11.4224423830       -4.7497471520  MEMB      148             0.0000000000
     16975       148  CHL1      C25           -29.5866772276       11.4849355569       -3.1248034212  MEMB      148             0.0000000000
     16976       148  CHL1      H25           -30.4896537465       12.1087791613       -2.9159495081  MEMB      148             0.0000000000
     16977       148  CHL1      C26           -29.9797508176       10.0267895172       -2.8915505660  MEMB      148             0.0000000000
     16978       148  CHL1      H26A          -29.1891598947        9.3475888448       -3.2717814160  MEMB      148             0.0000000000
     16979       148  CHL1      H26B          -30.1434966572        9.8120368651       -1.8149748199  MEMB      148             0.0000000000
     16980       148  CHL1      H26C          -30.9199475809        9.8001113109       -3.4402911442  MEMB      148             0.0000000000
     16981       148  CHL1      C27           -28.4736956727       11.9286985323       -2.1614910116  MEMB      148             0.0000000000
     16982       148  CHL1      H27A          -28.8323497203       11.8770888106       -1.1136446112  MEMB      148             0.0000000000
     16983       148  CHL1      H27B          -27.5804120779       11.2781010063       -2.2646197294  MEMB      148             0.0000000000
     16984       148  CHL1      H27C          -28.1690111641       12.9756333038       -2.3684350802  MEMB      148             0.0000000000
     16985       149  SOPE      N              18.5835906759       25.1136407859      -23.5259428080  MEMB      149             0.0000000000
     16986       149  SOPE      HN1            19.2402976455       25.3235506963      -24.3160438615  MEMB      149             0.0000000000
     16987       149  SOPE      HN2            18.9656124681       24.2522696939      -23.0519311074  MEMB      149             0.0000000000
     16988       149  SOPE      HN3            17.6295889952       24.9238061874      -23.9055258707  MEMB      149             0.0000000000
     16989       149  SOPE      C12            18.5547221289       26.2013857048      -22.4851178013  MEMB      149             0.0000000000
     16990       149  SOPE      H12A           18.0150997021       27.0731713976      -22.9053312894  MEMB      149             0.0000000000
     16991       149  SOPE      H12B           19.5996842301       26.5018599939      -22.2786672101  MEMB      149             0.0000000000
     16992       149  SOPE      C11            17.8934558065       25.7167622797      -21.1706608562  MEMB      149             0.0000000000
     16993       149  SOPE      H11A           16.7951971384       25.6657193973      -21.3439483201  MEMB      149             0.0000000000
     16994       149  SOPE      H11B           18.0746903314       26.4712069684      -20.3706162266  MEMB      149             0.0000000000
     16995       149  SOPE      P              19.7877686787       23.9458833706      -20.5993556158  MEMB      149             0.0000000000
     16996       149  SOPE      O13            20.6330290071       25.1129270697      -20.2790567300  MEMB      149             0.0000000000
     16997       149  SOPE      O14            20.0663067252       23.3142501685      -21.9158560333  MEMB      149             0.0000000000
     16998       149  SOPE      O12            18.3055349883       24.4287032401      -20.7260426618  MEMB      149             0.0000000000
     16999       149  SOPE      O11            19.7022247811       22.9016888703      -19.4019993628  MEMB      149             0.0000000000
     17000       149  SOPE      C1             18.8009671343       21.7793946414      -19.4819242111  MEMB      149             0.0000000000
     17001       149  SOPE      HA             19.3964235787       20.9282449458      -19.8828020094  MEMB      149             0.0000000000
     17002       149  SOPE      HB             17.9389962278       21.9557168499      -20.1669247632  MEMB      149             0.0000000000
     17003       149  SOPE      C2             18.1989551369       21.2798772751      -18.1130595392  MEMB      149             0.0000000000
     17004       149  SOPE      HS             17.2658114778       21.8545096616      -17.8927737196  MEMB      149             0.0000000000
     17005       149  SOPE      O21            19.1693233375       21.4257255260      -17.0884739653  MEMB      149             0.0000000000
     17006       149  SOPE      C21            19.1605295559       22.6076480231      -16.5635742324  MEMB      149             0.0000000000
     17007       149  SOPE      O22            18.1723481907       23.2565915426      -16.2474188722  MEMB      149             0.0000000000
     17008       149  SOPE      C22            20.6156657230       23.0526857288      -16.5044217697  MEMB      149             0.0000000000
     17009       149  SOPE      H2R            20.7455775048       23.8841327521      -17.2283288175  MEMB      149             0.0000000000
     17010       149  SOPE      H2S            21.2267250168       22.2163056597      -16.9006741613  MEMB      149             0.0000000000
     17011       149  SOPE      C3             17.8486262940       19.7792467840      -18.1564704391  MEMB      149             0.0000000000
     17012       149  SOPE      HX             18.6250436793       19.3762023726      -18.8463831033  MEMB      149             0.0000000000
     17013       149  SOPE      HY             16.8676830438       19.6336082997      -18.6507400975  MEMB      149             0.0000000000
     17014       149  SOPE      O31            17.8899767728       19.1496360413      -16.8362137184  MEMB      149             0.0000000000
     17015       149  SOPE      C31            18.3524054790       17.8996344212      -16.9084010506  MEMB      149             0.0000000000
     17016       149  SOPE      O32            18.6902068344       17.3442213864      -17.9346588504  MEMB      149             0.0000000000
     17017       149  SOPE      C32            18.2177163367       17.0681323476      -15.6196499932  MEMB      149             0.0000000000
     17018       149  SOPE      H2X            18.8709907154       16.2014390409      -15.9085494519  MEMB      149             0.0000000000
     17019       149  SOPE      H2Y            17.2290903410       16.5941138040      -15.5820103318  MEMB      149             0.0000000000
     17020       149  SOPE      C23            21.1429472609       23.4173009086      -15.1041921752  MEMB      149             0.0000000000
     17021       149  SOPE      H3R            21.1458250507       24.5220230763      -14.9622026333  MEMB      149             0.0000000000
     17022       149  SOPE      H3S            22.2107603898       23.0929139509      -15.1054150593  MEMB      149             0.0000000000
     17023       149  SOPE      C24            20.4493615689       22.7338538001      -13.9062818922  MEMB      149             0.0000000000
     17024       149  SOPE      H4R            19.7120264459       23.4426024744      -13.4678755363  MEMB      149             0.0000000000
     17025       149  SOPE      H4S            19.8852706053       21.8261405381      -14.2227820234  MEMB      149             0.0000000000
     17026       149  SOPE      C25            21.4994871793       22.2977603257      -12.8724256240  MEMB      149             0.0000000000
     17027       149  SOPE      H5R            21.9924003816       21.3806776455      -13.2746270492  MEMB      149             0.0000000000
     17028       149  SOPE      H5S            22.2887759326       23.0783416746      -12.8056820160  MEMB      149             0.0000000000
     17029       149  SOPE      C26            20.9898231457       21.9587586191      -11.4602615563  MEMB      149             0.0000000000
     17030       149  SOPE      H6R            19.9211555327       21.6602835221      -11.4697968012  MEMB      149             0.0000000000
     17031       149  SOPE      H6S            21.5760370121       21.0662832540      -11.1306477419  MEMB      149             0.0000000000
     17032       149  SOPE      C27            21.2579807214       23.0630800230      -10.4218445824  MEMB      149             0.0000000000
     17033       149  SOPE      H7R            22.2659439085       23.4894111596      -10.6353412871  MEMB      149             0.0000000000
     17034       149  SOPE      H7S            20.5209589745       23.8889103421      -10.5315437073  MEMB      149             0.0000000000
     17035       149  SOPE      C28            21.2854098241       22.5358924377       -8.9704870562  MEMB      149             0.0000000000
     17036       149  SOPE      H8R            21.9117064044       21.6375183533       -8.9294091557  MEMB      149             0.0000000000
     17037       149  SOPE      H8S            21.7714042492       23.3012257192       -8.3263251779  MEMB      149             0.0000000000
     17038       149  SOPE      C29            19.9154188147       22.2342334478       -8.4496763476  MEMB      149             0.0000000000
     17039       149  SOPE      H91            19.2162109695       23.0571784104       -8.6819071807  MEMB      149             0.0000000000
     17040       149  SOPE      C210           19.4155339490       21.1414082837       -7.8263063919  MEMB      149             0.0000000000
     17041       149  SOPE      H101           18.3208869508       21.1919822917       -7.8142879134  MEMB      149             0.0000000000
     17042       149  SOPE      C211           19.9568032293       19.7614361244       -7.3768015529  MEMB      149             0.0000000000
     17043       149  SOPE      H11R           20.4835664319       19.3484796304       -8.2605111071  MEMB      149             0.0000000000
     17044       149  SOPE      H11S           19.0801484541       19.1107399937       -7.3456212565  MEMB      149             0.0000000000
     17045       149  SOPE      C212           20.8210297206       19.3206895321       -6.0817623261  MEMB      149             0.0000000000
     17046       149  SOPE      H12R           21.3173261562       20.1813258407       -5.6164593312  MEMB      149             0.0000000000
     17047       149  SOPE      H12S           21.5751479271       18.6785210015       -6.5356228652  MEMB      149             0.0000000000
     17048       149  SOPE      C213           20.4892673123       18.2059960794       -5.0292381988  MEMB      149             0.0000000000
     17049       149  SOPE      H13R           20.2591141033       17.2768753376       -5.6006992816  MEMB      149             0.0000000000
     17050       149  SOPE      H13S           19.6125544649       18.4336372734       -4.4137519137  MEMB      149             0.0000000000
     17051       149  SOPE      C214           21.5471619804       17.7717730373       -3.9819431366  MEMB      149             0.0000000000
     17052       149  SOPE      H14R           22.4928683371       17.3758171533       -4.3854630418  MEMB      149             0.0000000000
     17053       149  SOPE      H14S           21.0574601504       16.9352904918       -3.4290781004  MEMB      149             0.0000000000
     17054       149  SOPE      C215           21.9976655161       18.8176230093       -2.9782516076  MEMB      149             0.0000000000
     17055       149  SOPE      H15R           21.2291455779       19.6218815027       -2.9249309221  MEMB      149             0.0000000000
     17056       149  SOPE      H15S           22.9418659575       19.2722355904       -3.3567564075  MEMB      149             0.0000000000
     17057       149  SOPE      C216           22.1905880911       18.2346445170       -1.5662050468  MEMB      149             0.0000000000
     17058       149  SOPE      H16R           21.1725104646       18.2275319764       -1.1117716334  MEMB      149             0.0000000000
     17059       149  SOPE      H16S           22.8045528942       18.9371568085       -0.9790010241  MEMB      149             0.0000000000
     17060       149  SOPE      C217           22.7635996435       16.8042333308       -1.4131841342  MEMB      149             0.0000000000
     17061       149  SOPE      H17R           22.3679932526       16.1040854797       -2.1753100346  MEMB      149             0.0000000000
     17062       149  SOPE      H17S           22.4329342082       16.4251525171       -0.4260600610  MEMB      149             0.0000000000
     17063       149  SOPE      C218           24.2688864561       16.6495231912       -1.3584872964  MEMB      149             0.0000000000
     17064       149  SOPE      H18R           24.6839210964       17.1196870090       -0.4445617859  MEMB      149             0.0000000000
     17065       149  SOPE      H18S           24.7001273517       17.1068371434       -2.2683202381  MEMB      149             0.0000000000
     17066       149  SOPE      H18T           24.5475482330       15.5724230559       -1.3135515200  MEMB      149             0.0000000000
     17067       149  SOPE      C33            18.7843981804       17.4858990830      -14.2212302474  MEMB      149             0.0000000000
     17068       149  SOPE      H3X            19.7969748836       17.8935066319      -14.3403074522  MEMB      149             0.0000000000
     17069       149  SOPE      H3Y            18.8305297209       16.4206477735      -13.8986488840  MEMB      149             0.0000000000
     17070       149  SOPE      C34            18.0877451305       18.1207328139      -12.9608451723  MEMB      149             0.0000000000
     17071       149  SOPE      H4X            18.3444156149       19.2038505671      -12.8784474473  MEMB      149             0.0000000000
     17072       149  SOPE      H4Y            17.0017980739       18.0281960356      -12.9656679710  MEMB      149             0.0000000000
     17073       149  SOPE      C35            18.4687065293       17.3785748552      -11.6522346946  MEMB      149             0.0000000000
     17074       149  SOPE      H5X            19.3987813281       17.8098285080      -11.2265119180  MEMB      149             0.0000000000
     17075       149  SOPE      H5Y            18.6657581103       16.3331654656      -11.9805848334  MEMB      149             0.0000000000
     17076       149  SOPE      C36            17.4674128436       17.1153285414      -10.5000674707  MEMB      149             0.0000000000
     17077       149  SOPE      H6X            17.3768177525       16.0046608807      -10.4114539883  MEMB      149             0.0000000000
     17078       149  SOPE      H6Y            16.4616085407       17.4659439922      -10.7741329101  MEMB      149             0.0000000000
     17079       149  SOPE      C37            17.9413249816       17.6150319481       -9.1056744784  MEMB      149             0.0000000000
     17080       149  SOPE      H7X            17.8033939103       18.7047059178       -9.0076396785  MEMB      149             0.0000000000
     17081       149  SOPE      H7Y            19.0406443522       17.4967116495       -9.0199722509  MEMB      149             0.0000000000
     17082       149  SOPE      C38            17.3045822885       16.8693044849       -7.9049852721  MEMB      149             0.0000000000
     17083       149  SOPE      H8X            18.0709461565       16.2379947489       -7.4027740071  MEMB      149             0.0000000000
     17084       149  SOPE      H8Y            16.5453383462       16.1814200803       -8.3427310081  MEMB      149             0.0000000000
     17085       149  SOPE      C39            16.5722589531       17.7281760043       -6.8337802140  MEMB      149             0.0000000000
     17086       149  SOPE      H9X            15.8250440583       17.0620979963       -6.3476390042  MEMB      149             0.0000000000
     17087       149  SOPE      H9Y            16.0276585282       18.5276247136       -7.3408458488  MEMB      149             0.0000000000
     17088       149  SOPE      C310           17.4389483628       18.3033867051       -5.6867641566  MEMB      149             0.0000000000
     17089       149  SOPE      H10X           18.3935704994       17.8451538914       -5.9314329284  MEMB      149             0.0000000000
     17090       149  SOPE      H10Y           17.1071647469       17.8759218105       -4.7179704400  MEMB      149             0.0000000000
     17091       149  SOPE      C311           17.5043209267       19.8583516489       -5.5296945291  MEMB      149             0.0000000000
     17092       149  SOPE      H11X           16.5537377597       20.0646992570       -5.0863701675  MEMB      149             0.0000000000
     17093       149  SOPE      H11Y           17.3895384682       20.3602662156       -6.4901399495  MEMB      149             0.0000000000
     17094       149  SOPE      C312           18.4623262737       20.6133796347       -4.5377528718  MEMB      149             0.0000000000
     17095       149  SOPE      H12X           19.4014458284       20.9351649281       -5.0258061356  MEMB      149             0.0000000000
     17096       149  SOPE      H12Y           18.7244933821       19.9571172604       -3.6893234755  MEMB      149             0.0000000000
     17097       149  SOPE      C313           17.8656061366       21.8957391833       -3.9180639845  MEMB      149             0.0000000000
     17098       149  SOPE      H13X           16.7694102580       21.8355506805       -4.0283501918  MEMB      149             0.0000000000
     17099       149  SOPE      H13Y           18.1828577231       22.7708047345       -4.5276880915  MEMB      149             0.0000000000
     17100       149  SOPE      C314           18.1508028325       22.1914620576       -2.4198671018  MEMB      149             0.0000000000
     17101       149  SOPE      H14X           17.4307537012       23.0014127646       -2.1504393946  MEMB      149             0.0000000000
     17102       149  SOPE      H14Y           19.1685348663       22.6203333730       -2.2922142930  MEMB      149             0.0000000000
     17103       149  SOPE      C315           17.9552117891       21.0613994874       -1.3757228913  MEMB      149             0.0000000000
     17104       149  SOPE      H15X           18.9288650677       20.8781400526       -0.8768779611  MEMB      149             0.0000000000
     17105       149  SOPE      H15Y           17.7230504268       20.0958167473       -1.8482927165  MEMB      149             0.0000000000
     17106       149  SOPE      C316           16.8528203578       21.4278987712       -0.3564070013  MEMB      149             0.0000000000
     17107       149  SOPE      H16X           15.9696067697       21.8124517174       -0.8945629579  MEMB      149             0.0000000000
     17108       149  SOPE      H16Y           17.2110843353       22.2911594765        0.2506893702  MEMB      149             0.0000000000
     17109       149  SOPE      C317           16.3177582876       20.3444589543        0.6083063917  MEMB      149             0.0000000000
     17110       149  SOPE      H17X           15.2775014445       20.6342414556        0.8911198992  MEMB      149             0.0000000000
     17111       149  SOPE      H17Y           16.9232345532       20.4445071936        1.5333431823  MEMB      149             0.0000000000
     17112       149  SOPE      C318           16.2813899623       18.8645886276        0.1844232884  MEMB      149             0.0000000000
     17113       149  SOPE      H18X           17.0689887565       18.6279987846       -0.5601479300  MEMB      149             0.0000000000
     17114       149  SOPE      H18Y           15.2914180664       18.5871720789       -0.2282193832  MEMB      149             0.0000000000
     17115       149  SOPE      H18Z           16.4591981594       18.2144889298        1.0694073791  MEMB      149             0.0000000000
     17116       150  SLPC      N             -24.0541952593       20.4993878451      -19.2392076455  MEMB      150             0.0000000000
     17117       150  SLPC      C13           -23.1184508047       20.9190510244      -18.1549037030  MEMB      150             0.0000000000
     17118       150  SLPC      H13A          -23.6101579822       20.8376463716      -17.1791168603  MEMB      150             0.0000000000
     17119       150  SLPC      H13B          -22.2912821771       20.2362610164      -18.0655952906  MEMB      150             0.0000000000
     17120       150  SLPC      H13C          -22.7196750586       21.9190597081      -18.2666939841  MEMB      150             0.0000000000
     17121       150  SLPC      C14           -23.2732007087       20.4631543718      -20.5107271653  MEMB      150             0.0000000000
     17122       150  SLPC      H14A          -22.5898947345       21.3100133897      -20.5452995747  MEMB      150             0.0000000000
     17123       150  SLPC      H14B          -22.6447209955       19.5795274537      -20.5531728034  MEMB      150             0.0000000000
     17124       150  SLPC      H14C          -23.9173744711       20.4896000166      -21.3742589726  MEMB      150             0.0000000000
     17125       150  SLPC      C15           -25.1266124958       21.5435399411      -19.2567909599  MEMB      150             0.0000000000
     17126       150  SLPC      H15A          -25.9442668117       21.2827743198      -19.9107616146  MEMB      150             0.0000000000
     17127       150  SLPC      H15B          -25.5369890987       21.6122609122      -18.2422911390  MEMB      150             0.0000000000
     17128       150  SLPC      H15C          -24.7209428474       22.5221895711      -19.4776612856  MEMB      150             0.0000000000
     17129       150  SLPC      C12           -24.6636550520       19.1421459422      -18.9185507485  MEMB      150             0.0000000000
     17130       150  SLPC      H12A          -23.8811844708       18.4108566400      -18.7708473151  MEMB      150             0.0000000000
     17131       150  SLPC      H12B          -25.2598696490       18.8096450286      -19.7549606065  MEMB      150             0.0000000000
     17132       150  SLPC      C11           -25.5988243195       19.0576114056      -17.7055377152  MEMB      150             0.0000000000
     17133       150  SLPC      H11A          -25.9623642189       18.0036525729      -17.6290362599  MEMB      150             0.0000000000
     17134       150  SLPC      H11B          -26.4907394595       19.7103451985      -17.8618552553  MEMB      150             0.0000000000
     17135       150  SLPC      P             -25.6440459673       19.2535756099      -15.1416468197  MEMB      150             0.0000000000
     17136       150  SLPC      O13           -25.0865232396       18.0488869419      -14.4816631465  MEMB      150             0.0000000000
     17137       150  SLPC      O14           -25.6275387498       20.5458107600      -14.4233315641  MEMB      150             0.0000000000
     17138       150  SLPC      O12           -24.9001273542       19.4361920117      -16.5292974482  MEMB      150             0.0000000000
     17139       150  SLPC      O11           -27.1405713751       18.9689527592      -15.6519582666  MEMB      150             0.0000000000
     17140       150  SLPC      C1            -27.8030068626       17.7381864143      -15.3804102780  MEMB      150             0.0000000000
     17141       150  SLPC      HA            -28.5033023935       17.5028707387      -16.2096578839  MEMB      150             0.0000000000
     17142       150  SLPC      HB            -27.0904970851       16.8836385950      -15.2971490201  MEMB      150             0.0000000000
     17143       150  SLPC      C2            -28.6334803112       17.8435510397      -14.0836039133  MEMB      150             0.0000000000
     17144       150  SLPC      HS            -29.5139711763       18.4912776349      -14.3114752157  MEMB      150             0.0000000000
     17145       150  SLPC      O21           -27.8233794756       18.4080319129      -13.0517576764  MEMB      150             0.0000000000
     17146       150  SLPC      C21           -28.4944556906       18.9791560873      -12.0808246948  MEMB      150             0.0000000000
     17147       150  SLPC      O22           -29.6825111259       19.2517440401      -12.1007908378  MEMB      150             0.0000000000
     17148       150  SLPC      C22           -27.5908458901       19.1294636046      -10.8647541805  MEMB      150             0.0000000000
     17149       150  SLPC      H2R           -26.8275765210       18.3278898797      -10.9122233317  MEMB      150             0.0000000000
     17150       150  SLPC      H2S           -27.0620853630       20.0997727533      -10.9205246479  MEMB      150             0.0000000000
     17151       150  SLPC      C3            -29.1201732000       16.4603898218      -13.6105477271  MEMB      150             0.0000000000
     17152       150  SLPC      HX            -29.8473821406       16.0793030588      -14.3538867858  MEMB      150             0.0000000000
     17153       150  SLPC      HY            -29.6501355244       16.5826224605      -12.6399345820  MEMB      150             0.0000000000
     17154       150  SLPC      O31           -28.0337524669       15.5261499561      -13.5272915251  MEMB      150             0.0000000000
     17155       150  SLPC      C31           -27.4769800453       15.4299373163      -12.3334046845  MEMB      150             0.0000000000
     17156       150  SLPC      O32           -27.8910930542       15.9482816107      -11.3114469963  MEMB      150             0.0000000000
     17157       150  SLPC      C32           -26.2801392420       14.5170747683      -12.4425602540  MEMB      150             0.0000000000
     17158       150  SLPC      H2X           -26.3143293390       13.9372434792      -13.3908245294  MEMB      150             0.0000000000
     17159       150  SLPC      H2Y           -26.2913439999       13.7955677563      -11.6054962145  MEMB      150             0.0000000000
     17160       150  SLPC      C23           -28.3896567948       18.9689881033       -9.5511878495  MEMB      150             0.0000000000
     17161       150  SLPC      H3R           -27.6997110684       18.5330897358       -8.7978813097  MEMB      150             0.0000000000
     17162       150  SLPC      H3S           -29.2199532426       18.2357744119       -9.6545792151  MEMB      150             0.0000000000
     17163       150  SLPC      C24           -28.9166670842       20.3077421922       -9.0250456625  MEMB      150             0.0000000000
     17164       150  SLPC      H4R           -29.7981538466       20.6339493700       -9.6185896408  MEMB      150             0.0000000000
     17165       150  SLPC      H4S           -28.1119116632       21.0700659065       -9.1634066246  MEMB      150             0.0000000000
     17166       150  SLPC      C25           -29.2550186834       20.2577270868       -7.5301075294  MEMB      150             0.0000000000
     17167       150  SLPC      H5R           -29.0384818783       21.2570469453       -7.0850066932  MEMB      150             0.0000000000
     17168       150  SLPC      H5S           -28.5915301993       19.5034799352       -7.0546385295  MEMB      150             0.0000000000
     17169       150  SLPC      C26           -30.7026054634       19.9079574876       -7.1848600182  MEMB      150             0.0000000000
     17170       150  SLPC      H6R           -30.9529999916       18.9160654219       -7.6138170633  MEMB      150             0.0000000000
     17171       150  SLPC      H6S           -31.3765382461       20.6527690992       -7.6618239243  MEMB      150             0.0000000000
     17172       150  SLPC      C27           -30.9499940010       19.9243952379       -5.6681122668  MEMB      150             0.0000000000
     17173       150  SLPC      H7R           -32.0391128331       19.9982419738       -5.4494726173  MEMB      150             0.0000000000
     17174       150  SLPC      H7S           -30.4790188216       20.8356775293       -5.2340361684  MEMB      150             0.0000000000
     17175       150  SLPC      C28           -30.3977366875       18.7127352070       -4.8977244667  MEMB      150             0.0000000000
     17176       150  SLPC      H8R           -30.9684569511       18.6919291741       -3.9431273980  MEMB      150             0.0000000000
     17177       150  SLPC      H8S           -29.3490455810       18.9160338220       -4.6218421122  MEMB      150             0.0000000000
     17178       150  SLPC      C29           -30.3957434213       17.3770196466       -5.5838525977  MEMB      150             0.0000000000
     17179       150  SLPC      H9R           -29.8063741708       17.3017127424       -6.5143680573  MEMB      150             0.0000000000
     17180       150  SLPC      C210          -31.0752212229       16.3114665017       -5.1568677311  MEMB      150             0.0000000000
     17181       150  SLPC      H10R          -30.9052246760       15.3557377586       -5.6584460466  MEMB      150             0.0000000000
     17182       150  SLPC      C211          -31.9583182823       16.2312538368       -3.9452489477  MEMB      150             0.0000000000
     17183       150  SLPC      H11R          -32.9809220566       16.0529908338       -4.3140517477  MEMB      150             0.0000000000
     17184       150  SLPC      H11S          -31.9973549881       17.1607530003       -3.3371620823  MEMB      150             0.0000000000
     17185       150  SLPC      C212          -31.6176675977       15.0607731965       -3.0872775317  MEMB      150             0.0000000000
     17186       150  SLPC      H12R          -32.0423760897       14.1214311831       -3.4586559590  MEMB      150             0.0000000000
     17187       150  SLPC      C213          -30.7992142160       15.0323052733       -2.0303851466  MEMB      150             0.0000000000
     17188       150  SLPC      H13R          -30.6184464993       14.0662517138       -1.5367839315  MEMB      150             0.0000000000
     17189       150  SLPC      C214          -30.0220916096       16.1859013542       -1.4627405595  MEMB      150             0.0000000000
     17190       150  SLPC      H14R          -30.3505089835       16.4559986037       -0.4366963121  MEMB      150             0.0000000000
     17191       150  SLPC      H14S          -30.0947119669       17.1130435623       -2.0744938029  MEMB      150             0.0000000000
     17192       150  SLPC      C215          -28.5670609301       15.7251973584       -1.4038272804  MEMB      150             0.0000000000
     17193       150  SLPC      H15R          -28.1938062026       15.4905882008       -2.4286031043  MEMB      150             0.0000000000
     17194       150  SLPC      H15S          -28.4705002751       14.8051009232       -0.7792320184  MEMB      150             0.0000000000
     17195       150  SLPC      C216          -27.6914533649       16.8050985686       -0.7939334378  MEMB      150             0.0000000000
     17196       150  SLPC      H16R          -28.0838903084       17.0730395388        0.2112271735  MEMB      150             0.0000000000
     17197       150  SLPC      H16S          -27.7424800046       17.7165701014       -1.4327902360  MEMB      150             0.0000000000
     17198       150  SLPC      C217          -26.2511885256       16.3408167107       -0.6483074023  MEMB      150             0.0000000000
     17199       150  SLPC      H17R          -25.8809662507       16.0341443444       -1.6503117787  MEMB      150             0.0000000000
     17200       150  SLPC      H17S          -26.2163539942       15.4392519902        0.0049178854  MEMB      150             0.0000000000
     17201       150  SLPC      C218          -25.3913456488       17.4551254919       -0.0669488990  MEMB      150             0.0000000000
     17202       150  SLPC      H18R          -24.3675132475       17.1114612662        0.1643603444  MEMB      150             0.0000000000
     17203       150  SLPC      H18S          -25.8456230747       17.8373789819        0.8712916817  MEMB      150             0.0000000000
     17204       150  SLPC      H18T          -25.3212950762       18.2911517854       -0.7957130852  MEMB      150             0.0000000000
     17205       150  SLPC      C33           -24.9812898761       15.3137901630      -12.3581678072  MEMB      150             0.0000000000
     17206       150  SLPC      H3X           -24.7585217552       15.8816259497      -13.2910493271  MEMB      150             0.0000000000
     17207       150  SLPC      H3Y           -24.2304246867       14.5314801611      -12.2026449155  MEMB      150             0.0000000000
     17208       150  SLPC      C34           -24.7529155920       16.1612839605      -11.1138764092  MEMB      150             0.0000000000
     17209       150  SLPC      H4X           -25.2181947821       17.1572971815      -11.2443992112  MEMB      150             0.0000000000
     17210       150  SLPC      H4Y           -23.6529365893       16.3350601420      -11.0772362901  MEMB      150             0.0000000000
     17211       150  SLPC      C35           -25.1974388124       15.4906716022       -9.8047972424  MEMB      150             0.0000000000
     17212       150  SLPC      H5X           -24.6394630083       14.5636310190       -9.6201447027  MEMB      150             0.0000000000
     17213       150  SLPC      H5Y           -26.2638965412       15.1890161431       -9.8467663424  MEMB      150             0.0000000000
     17214       150  SLPC      C36           -25.0562847898       16.4185458665       -8.6089060866  MEMB      150             0.0000000000
     17215       150  SLPC      H6X           -25.2619619465       15.8781433671       -7.6591036384  MEMB      150             0.0000000000
     17216       150  SLPC      H6Y           -25.8844489438       17.1364160909       -8.7767086939  MEMB      150             0.0000000000
     17217       150  SLPC      C37           -23.7166154963       17.1592531603       -8.5143840953  MEMB      150             0.0000000000
     17218       150  SLPC      H7X           -23.3674460347       17.5281103667       -9.5025041363  MEMB      150             0.0000000000
     17219       150  SLPC      H7Y           -22.9306185339       16.4753538623       -8.1242208784  MEMB      150             0.0000000000
     17220       150  SLPC      C38           -23.8203343625       18.4058693875       -7.6388446321  MEMB      150             0.0000000000
     17221       150  SLPC      H8X           -22.8548867045       18.9444270308       -7.7118513529  MEMB      150             0.0000000000
     17222       150  SLPC      H8Y           -23.9513926141       18.1002490578       -6.5832370551  MEMB      150             0.0000000000
     17223       150  SLPC      C39           -24.9704049372       19.3398185335       -8.0390442272  MEMB      150             0.0000000000
     17224       150  SLPC      H9X           -25.9438335741       18.8497979154       -7.8497610355  MEMB      150             0.0000000000
     17225       150  SLPC      H9Y           -24.9000134915       19.5882939789       -9.1201824401  MEMB      150             0.0000000000
     17226       150  SLPC      C310          -25.0098688191       20.6098375187       -7.2174638976  MEMB      150             0.0000000000
     17227       150  SLPC      H10X          -25.7246238485       21.3497600669       -7.6364928503  MEMB      150             0.0000000000
     17228       150  SLPC      H10Y          -24.0023729305       21.0520452217       -7.2518706407  MEMB      150             0.0000000000
     17229       150  SLPC      C311          -25.2725548489       20.3691056727       -5.7442085077  MEMB      150             0.0000000000
     17230       150  SLPC      H11X          -25.0239364107       21.3553432003       -5.2969393998  MEMB      150             0.0000000000
     17231       150  SLPC      H11Y          -24.5825343183       19.6289321508       -5.2902928377  MEMB      150             0.0000000000
     17232       150  SLPC      C312          -26.7127827024       20.0815064824       -5.3333817876  MEMB      150             0.0000000000
     17233       150  SLPC      H12X          -26.9788726792       19.0100843556       -5.4628317609  MEMB      150             0.0000000000
     17234       150  SLPC      H12Y          -27.3714958512       20.7281811078       -5.9431188191  MEMB      150             0.0000000000
     17235       150  SLPC      C313          -26.7642482127       20.5741524022       -3.9036410990  MEMB      150             0.0000000000
     17236       150  SLPC      H13X          -26.4677444155       21.6466704439       -3.9961515127  MEMB      150             0.0000000000
     17237       150  SLPC      H13Y          -25.9931984526       20.0164836049       -3.3202337010  MEMB      150             0.0000000000
     17238       150  SLPC      C314          -28.0359598783       20.6341978829       -3.0863134278  MEMB      150             0.0000000000
     17239       150  SLPC      H14X          -28.4861862431       19.6235302571       -2.9685086748  MEMB      150             0.0000000000
     17240       150  SLPC      H14Y          -28.7922119569       21.3139235436       -3.5297737281  MEMB      150             0.0000000000
     17241       150  SLPC      C315          -27.5930918669       21.0838895484       -1.6897406909  MEMB      150             0.0000000000
     17242       150  SLPC      H15X          -27.0913214018       20.1705619775       -1.3017767764  MEMB      150             0.0000000000
     17243       150  SLPC      H15Y          -28.4539018815       21.3059317322       -1.0351525903  MEMB      150             0.0000000000
     17244       150  SLPC      C316          -26.5849499661       22.2466770519       -1.5796568625  MEMB      150             0.0000000000
     17245       150  SLPC      H16X          -27.0699915488       23.1986119434       -1.8882267825  MEMB      150             0.0000000000
     17246       150  SLPC      H16Y          -25.6878625112       22.1021685063       -2.2216692368  MEMB      150             0.0000000000
     17247       150  SLPC      C317          -26.0425351524       22.3358020080       -0.1523514681  MEMB      150             0.0000000000
     17248       150  SLPC      H17X          -26.9201513825       22.4184395902        0.5284391690  MEMB      150             0.0000000000
     17249       150  SLPC      H17Y          -25.4297755775       23.2577297796       -0.0404043233  MEMB      150             0.0000000000
     17250       150  SLPC      C318          -25.1935496774       21.1117812291        0.2211411680  MEMB      150             0.0000000000
     17251       150  SLPC      H18X          -24.7372351236       21.2260698163        1.2244900046  MEMB      150             0.0000000000
     17252       150  SLPC      H18Y          -24.3944520253       20.9358490992       -0.5287035779  MEMB      150             0.0000000000
     17253       150  SLPC      H18Z          -25.8288202154       20.2018903724        0.2569854605  MEMB      150             0.0000000000
     17254       151  CHL1      C3            -28.1043755958      -15.1205423102      -17.5264838545  MEMB      151             0.0000000000
     17255       151  CHL1      H3            -28.0433020756      -16.0791662989      -16.9544364504  MEMB      151             0.0000000000
     17256       151  CHL1      O3            -28.1081894613      -15.4230472341      -18.9133547256  MEMB      151             0.0000000000
     17257       151  CHL1      H3'           -27.1729612511      -15.5334546149      -19.1084500157  MEMB      151             0.0000000000
     17258       151  CHL1      C4            -29.3995179982      -14.3818614436      -17.1774299110  MEMB      151             0.0000000000
     17259       151  CHL1      H4A           -29.4643263650      -13.4502801593      -17.7764558555  MEMB      151             0.0000000000
     17260       151  CHL1      H4B           -30.2460381752      -15.0391852643      -17.4860663358  MEMB      151             0.0000000000
     17261       151  CHL1      C5            -29.4638543990      -14.0441662335      -15.7064084396  MEMB      151             0.0000000000
     17262       151  CHL1      C6            -30.5383706404      -14.4014346781      -14.9997536933  MEMB      151             0.0000000000
     17263       151  CHL1      H6            -31.3951948580      -14.8620660539      -15.5156479606  MEMB      151             0.0000000000
     17264       151  CHL1      C7            -30.6832896913      -14.1982618442      -13.5265498076  MEMB      151             0.0000000000
     17265       151  CHL1      H7A           -31.6621146536      -13.7216469373      -13.2945345235  MEMB      151             0.0000000000
     17266       151  CHL1      H7B           -30.6710885307      -15.1853369667      -13.0243478454  MEMB      151             0.0000000000
     17267       151  CHL1      C8            -29.5702775724      -13.3472822875      -12.8910893237  MEMB      151             0.0000000000
     17268       151  CHL1      H8            -29.9071604857      -12.2939217980      -13.0073627684  MEMB      151             0.0000000000
     17269       151  CHL1      C14           -29.3791345426      -13.7365080183      -11.4331868402  MEMB      151             0.0000000000
     17270       151  CHL1      H14           -28.7807550747      -14.6859755984      -11.4291068922  MEMB      151             0.0000000000
     17271       151  CHL1      C15           -30.6121045851      -14.0938007929      -10.5959268792  MEMB      151             0.0000000000
     17272       151  CHL1      H15A          -31.4501438973      -13.4131754165      -10.8551742546  MEMB      151             0.0000000000
     17273       151  CHL1      H15B          -30.9105766884      -15.1468236708      -10.7821655973  MEMB      151             0.0000000000
     17274       151  CHL1      C16           -30.1550300151      -13.8825988661       -9.1494862246  MEMB      151             0.0000000000
     17275       151  CHL1      H16A          -30.8531884659      -13.1608588568       -8.6691066616  MEMB      151             0.0000000000
     17276       151  CHL1      H16B          -30.1406341582      -14.8308761163       -8.5731457143  MEMB      151             0.0000000000
     17277       151  CHL1      C17           -28.7173048539      -13.2926953274       -9.2111199623  MEMB      151             0.0000000000
     17278       151  CHL1      H17           -28.0108002520      -14.1545384854       -9.1481903031  MEMB      151             0.0000000000
     17279       151  CHL1      C13           -28.5788726220      -12.7263197766      -10.6381185761  MEMB      151             0.0000000000
     17280       151  CHL1      C18           -29.3263324651      -11.3714252592      -10.6818844342  MEMB      151             0.0000000000
     17281       151  CHL1      H18A          -29.1805713491      -10.8986592168      -11.6633889577  MEMB      151             0.0000000000
     17282       151  CHL1      H18B          -30.4151611570      -11.4950722254      -10.5294558403  MEMB      151             0.0000000000
     17283       151  CHL1      H18C          -28.9607759820      -10.6545612172       -9.9264430111  MEMB      151             0.0000000000
     17284       151  CHL1      C12           -27.1684464574      -12.7056203669      -11.2848268142  MEMB      151             0.0000000000
     17285       151  CHL1      H12A          -26.5400160357      -11.9177199541      -10.8457511476  MEMB      151             0.0000000000
     17286       151  CHL1      H12B          -26.6713207911      -13.6801639142      -11.0873306914  MEMB      151             0.0000000000
     17287       151  CHL1      C11           -27.2135910888      -12.4947190377      -12.8182176669  MEMB      151             0.0000000000
     17288       151  CHL1      H11A          -27.5428195515      -11.4490672389      -12.9900816669  MEMB      151             0.0000000000
     17289       151  CHL1      H11B          -26.1901155583      -12.5824000851      -13.2351805107  MEMB      151             0.0000000000
     17290       151  CHL1      C9            -28.1933364890      -13.4686602034      -13.5430669919  MEMB      151             0.0000000000
     17291       151  CHL1      H9            -27.8264751116      -14.4993759327      -13.3173738901  MEMB      151             0.0000000000
     17292       151  CHL1      C10           -28.2106626590      -13.3838649396      -15.0906055276  MEMB      151             0.0000000000
     17293       151  CHL1      C19           -28.3355675024      -11.9046184194      -15.4937052881  MEMB      151             0.0000000000
     17294       151  CHL1      H19A          -29.2434232332      -11.4640338907      -15.0312062323  MEMB      151             0.0000000000
     17295       151  CHL1      H19B          -27.4515491767      -11.3164824085      -15.1753319001  MEMB      151             0.0000000000
     17296       151  CHL1      H19C          -28.4125741314      -11.7815174577      -16.5926940141  MEMB      151             0.0000000000
     17297       151  CHL1      C1            -26.8836573153      -13.9866373849      -15.6459322028  MEMB      151             0.0000000000
     17298       151  CHL1      H1A           -26.0412739293      -13.3055480163      -15.3939712807  MEMB      151             0.0000000000
     17299       151  CHL1      H1B           -26.6946221543      -14.9543644726      -15.1314597570  MEMB      151             0.0000000000
     17300       151  CHL1      C2            -26.8860910384      -14.2598452134      -17.1624898774  MEMB      151             0.0000000000
     17301       151  CHL1      H2A           -25.9412503001      -14.7782240191      -17.4325217144  MEMB      151             0.0000000000
     17302       151  CHL1      H2B           -26.9181579277      -13.2918381810      -17.7105109296  MEMB      151             0.0000000000
     17303       151  CHL1      C20           -28.4449030108      -12.3719408044       -8.0160978631  MEMB      151             0.0000000000
     17304       151  CHL1      H20           -29.2366710998      -11.5867703746       -7.9756729755  MEMB      151             0.0000000000
     17305       151  CHL1      C21           -27.0886616343      -11.6717657639       -8.1973695668  MEMB      151             0.0000000000
     17306       151  CHL1      H21A          -27.1172339031      -11.0304181963       -9.0945802548  MEMB      151             0.0000000000
     17307       151  CHL1      H21B          -26.2732666639      -12.4140942870       -8.3072678911  MEMB      151             0.0000000000
     17308       151  CHL1      H21C          -26.8499042100      -10.9871229925       -7.3629966011  MEMB      151             0.0000000000
     17309       151  CHL1      C22           -28.4943711355      -13.1424039142       -6.6777064323  MEMB      151             0.0000000000
     17310       151  CHL1      H22A          -29.4986421790      -13.6052297959       -6.5456629732  MEMB      151             0.0000000000
     17311       151  CHL1      H22B          -27.7420812224      -13.9605945977       -6.7084648844  MEMB      151             0.0000000000
     17312       151  CHL1      C23           -28.2337885720      -12.2687557582       -5.4461686331  MEMB      151             0.0000000000
     17313       151  CHL1      H23A          -27.3228357374      -11.6467880036       -5.5654849467  MEMB      151             0.0000000000
     17314       151  CHL1      H23B          -29.0916206503      -11.5749020519       -5.2981102352  MEMB      151             0.0000000000
     17315       151  CHL1      C24           -28.0228421593      -13.1113345780       -4.1911842285  MEMB      151             0.0000000000
     17316       151  CHL1      H24A          -28.8406616399      -13.8599200577       -4.1053992963  MEMB      151             0.0000000000
     17317       151  CHL1      H24B          -27.0592152935      -13.6632000942       -4.2675665208  MEMB      151             0.0000000000
     17318       151  CHL1      C25           -28.0114180756      -12.2354905261       -2.9373445975  MEMB      151             0.0000000000
     17319       151  CHL1      H25           -28.9257059548      -11.5934664324       -2.9549549639  MEMB      151             0.0000000000
     17320       151  CHL1      C26           -28.0441344194      -13.0838071626       -1.6755411771  MEMB      151             0.0000000000
     17321       151  CHL1      H26A          -27.1234263215      -13.6948310706       -1.5716863277  MEMB      151             0.0000000000
     17322       151  CHL1      H26B          -28.0947257841      -12.3663833233       -0.8358653606  MEMB      151             0.0000000000
     17323       151  CHL1      H26C          -28.9372091410      -13.7418205283       -1.6540981369  MEMB      151             0.0000000000
     17324       151  CHL1      C27           -26.7858012795      -11.3256643516       -2.8634887866  MEMB      151             0.0000000000
     17325       151  CHL1      H27A          -25.8709633893      -11.9380019229       -2.9893326026  MEMB      151             0.0000000000
     17326       151  CHL1      H27B          -26.8108746436      -10.5525299326       -3.6578354448  MEMB      151             0.0000000000
     17327       151  CHL1      H27C          -26.7486471281      -10.8278489220       -1.8680232419  MEMB      151             0.0000000000
     17328       152  SAPE      N              13.3369821790      -29.8816366125      -23.0463298567  MEMB      152             0.0000000000
     17329       152  SAPE      HN1            12.6912674967      -30.3933542842      -23.6692273098  MEMB      152             0.0000000000
     17330       152  SAPE      HN2            12.8557110296      -29.5236369050      -22.1881835073  MEMB      152             0.0000000000
     17331       152  SAPE      HN3            13.7692293776      -29.0321017164      -23.4740557479  MEMB      152             0.0000000000
     17332       152  SAPE      C12            14.3725285591      -30.7391086722      -22.3967157712  MEMB      152             0.0000000000
     17333       152  SAPE      H12A           15.1579520627      -30.9672706060      -23.1383475957  MEMB      152             0.0000000000
     17334       152  SAPE      H12B           13.8855521713      -31.6670377730      -22.0288761201  MEMB      152             0.0000000000
     17335       152  SAPE      C11            14.8822570919      -29.9127006175      -21.2321025978  MEMB      152             0.0000000000
     17336       152  SAPE      H11A           15.5684241248      -29.1441696831      -21.6770212181  MEMB      152             0.0000000000
     17337       152  SAPE      H11B           15.5106791784      -30.5054019718      -20.5339515076  MEMB      152             0.0000000000
     17338       152  SAPE      P              14.0699745954      -28.0646732092      -19.6777709729  MEMB      152             0.0000000000
     17339       152  SAPE      O13            15.5308906100      -27.8761903743      -19.6904580740  MEMB      152             0.0000000000
     17340       152  SAPE      O14            13.2600156036      -26.9129596222      -20.1416171524  MEMB      152             0.0000000000
     17341       152  SAPE      O12            13.7452403574      -29.3284004684      -20.5594731938  MEMB      152             0.0000000000
     17342       152  SAPE      O11            13.5616104537      -28.6041846498      -18.2878987095  MEMB      152             0.0000000000
     17343       152  SAPE      C1             12.1510314371      -28.6496896449      -17.9935585252  MEMB      152             0.0000000000
     17344       152  SAPE      HA             11.9444267043      -27.9608953750      -17.1454462550  MEMB      152             0.0000000000
     17345       152  SAPE      HB             11.5135773144      -28.3076111427      -18.8466486502  MEMB      152             0.0000000000
     17346       152  SAPE      C2             11.5730343084      -30.0316487192      -17.5339712578  MEMB      152             0.0000000000
     17347       152  SAPE      HS             10.4910408087      -29.8844832228      -17.3310137483  MEMB      152             0.0000000000
     17348       152  SAPE      O21            12.2283673229      -30.4331091877      -16.3116265762  MEMB      152             0.0000000000
     17349       152  SAPE      C21            11.7197888263      -31.4915988947      -15.7080196930  MEMB      152             0.0000000000
     17350       152  SAPE      O22            10.8844183181      -32.2454414576      -16.1549185240  MEMB      152             0.0000000000
     17351       152  SAPE      C22            12.2406216943      -31.6461644516      -14.3054994080  MEMB      152             0.0000000000
     17352       152  SAPE      H2R            12.2699415138      -32.7279338467      -14.0597733593  MEMB      152             0.0000000000
     17353       152  SAPE      H2S            13.2442055249      -31.2221020844      -14.2914213679  MEMB      152             0.0000000000
     17354       152  SAPE      C3             11.7031843665      -31.1210047434      -18.6583565642  MEMB      152             0.0000000000
     17355       152  SAPE      HX             11.2905218624      -30.6289106614      -19.5686319226  MEMB      152             0.0000000000
     17356       152  SAPE      HY             11.0216974660      -31.9705032302      -18.4443786780  MEMB      152             0.0000000000
     17357       152  SAPE      O31            13.0520075408      -31.5419830372      -18.9351742108  MEMB      152             0.0000000000
     17358       152  SAPE      C31            13.4512339412      -32.7081403192      -18.4405677001  MEMB      152             0.0000000000
     17359       152  SAPE      O32            12.7196779932      -33.5678261015      -17.9935472962  MEMB      152             0.0000000000
     17360       152  SAPE      C32            14.9874504498      -32.7360193093      -18.4901223452  MEMB      152             0.0000000000
     17361       152  SAPE      H2X            15.3351982932      -31.9358532728      -19.1666399279  MEMB      152             0.0000000000
     17362       152  SAPE      H2Y            15.2937285200      -33.7105195161      -18.9139293821  MEMB      152             0.0000000000
     17363       152  SAPE      C23            11.3522730613      -30.8850952223      -13.3100699857  MEMB      152             0.0000000000
     17364       152  SAPE      H3R            10.5713181351      -31.5674124872      -12.9153662071  MEMB      152             0.0000000000
     17365       152  SAPE      H3S            10.8394127957      -30.0405779073      -13.8356515850  MEMB      152             0.0000000000
     17366       152  SAPE      C24            12.1514407954      -30.2234194130      -12.1929970334  MEMB      152             0.0000000000
     17367       152  SAPE      H4R            11.4412340959      -29.8184837293      -11.4351936376  MEMB      152             0.0000000000
     17368       152  SAPE      H4S            12.6696810406      -29.3585895214      -12.6494701519  MEMB      152             0.0000000000
     17369       152  SAPE      C25            13.2507445834      -31.0543962854      -11.6105544265  MEMB      152             0.0000000000
     17370       152  SAPE      H5R            13.9878476058      -31.4373568683      -12.3250489327  MEMB      152             0.0000000000
     17371       152  SAPE      C26            13.3919351544      -31.3466487994      -10.3228394205  MEMB      152             0.0000000000
     17372       152  SAPE      H6R            14.3438010724      -31.7814805256       -9.9868934148  MEMB      152             0.0000000000
     17373       152  SAPE      C27            12.4667991473      -30.9019163319       -9.2343107349  MEMB      152             0.0000000000
     17374       152  SAPE      H7R            12.2703712110      -29.8061786932       -9.2968367054  MEMB      152             0.0000000000
     17375       152  SAPE      H7S            12.9735949163      -31.0688315559       -8.2589817914  MEMB      152             0.0000000000
     17376       152  SAPE      C28            11.1916187609      -31.7114686204       -9.3029109160  MEMB      152             0.0000000000
     17377       152  SAPE      H8R            11.1992930328      -32.5894180924       -9.9700365379  MEMB      152             0.0000000000
     17378       152  SAPE      C29            10.0522971786      -31.4067121341       -8.6737297714  MEMB      152             0.0000000000
     17379       152  SAPE      H9R             9.2036684821      -32.0975338635       -8.7606601072  MEMB      152             0.0000000000
     17380       152  SAPE      C210            9.8273603089      -30.2148186056       -7.7904343272  MEMB      152             0.0000000000
     17381       152  SAPE      H10R            8.7731499247      -30.2258586212       -7.4450551183  MEMB      152             0.0000000000
     17382       152  SAPE      H10S            9.9072494062      -29.3131500428       -8.4381253028  MEMB      152             0.0000000000
     17383       152  SAPE      C211           10.7770988948      -30.0719679068       -6.6238789378  MEMB      152             0.0000000000
     17384       152  SAPE      H11R           11.8235357115      -29.9301548133       -6.9278846783  MEMB      152             0.0000000000
     17385       152  SAPE      C212           10.4856848396      -29.9740036732       -5.3139455094  MEMB      152             0.0000000000
     17386       152  SAPE      H12R           11.3365797618      -29.8944416601       -4.6232278577  MEMB      152             0.0000000000
     17387       152  SAPE      C213            9.1093761441      -29.9801503720       -4.6811846848  MEMB      152             0.0000000000
     17388       152  SAPE      H13R            8.3553921267      -30.3707145124       -5.3909965463  MEMB      152             0.0000000000
     17389       152  SAPE      H13S            8.8341327593      -28.9279248892       -4.5319302746  MEMB      152             0.0000000000
     17390       152  SAPE      C214            8.9435933105      -30.7077557264       -3.3684542967  MEMB      152             0.0000000000
     17391       152  SAPE      H14R            9.4489650820      -31.6752327493       -3.3457691245  MEMB      152             0.0000000000
     17392       152  SAPE      C215            8.1673194888      -30.3723581917       -2.3135571564  MEMB      152             0.0000000000
     17393       152  SAPE      H15R            8.1631020239      -31.0301607545       -1.4278514187  MEMB      152             0.0000000000
     17394       152  SAPE      C216            7.2626518357      -29.1683014251       -2.1955081193  MEMB      152             0.0000000000
     17395       152  SAPE      H16R            6.4609036662      -29.3834926282       -1.4508961927  MEMB      152             0.0000000000
     17396       152  SAPE      H16S            6.7352899868      -28.9371129134       -3.1463085081  MEMB      152             0.0000000000
     17397       152  SAPE      C217            8.0084253439      -27.9328457043       -1.6705491494  MEMB      152             0.0000000000
     17398       152  SAPE      H17R            8.3948384934      -28.2417931949       -0.6744333399  MEMB      152             0.0000000000
     17399       152  SAPE      H17S            7.2885047460      -27.0985167631       -1.5195337674  MEMB      152             0.0000000000
     17400       152  SAPE      C218            9.1735308376      -27.4173169535       -2.5322753339  MEMB      152             0.0000000000
     17401       152  SAPE      H18R            8.7927656265      -27.0574196966       -3.5146077545  MEMB      152             0.0000000000
     17402       152  SAPE      H18S            9.8859477313      -28.2484662234       -2.7316498520  MEMB      152             0.0000000000
     17403       152  SAPE      C219            9.9605765631      -26.2827671005       -1.8672966696  MEMB      152             0.0000000000
     17404       152  SAPE      H19R            9.3996558437      -25.3353391851       -2.0251410814  MEMB      152             0.0000000000
     17405       152  SAPE      H19S           10.9411008716      -26.1872423959       -2.3893432487  MEMB      152             0.0000000000
     17406       152  SAPE      C220           10.1890587548      -26.4723377444       -0.3657498957  MEMB      152             0.0000000000
     17407       152  SAPE      H20R           10.6972877055      -25.5935070706        0.0705315531  MEMB      152             0.0000000000
     17408       152  SAPE      H20S           10.7927298233      -27.3845801589       -0.1612493458  MEMB      152             0.0000000000
     17409       152  SAPE      H20T            9.2276849542      -26.5663044601        0.1677241156  MEMB      152             0.0000000000
     17410       152  SAPE      C33            15.6342763466      -32.5022953964      -17.1056907321  MEMB      152             0.0000000000
     17411       152  SAPE      H3X            16.7333637072      -32.6664522937      -17.1827259733  MEMB      152             0.0000000000
     17412       152  SAPE      H3Y            15.2240272060      -33.2384130412      -16.3810090847  MEMB      152             0.0000000000
     17413       152  SAPE      C34            15.4011079639      -31.0764519902      -16.5869604987  MEMB      152             0.0000000000
     17414       152  SAPE      H4X            14.3568188476      -30.7852468468      -16.7954970562  MEMB      152             0.0000000000
     17415       152  SAPE      H4Y            16.0322862498      -30.3547738156      -17.1494727907  MEMB      152             0.0000000000
     17416       152  SAPE      C35            15.6545450593      -30.9609637156      -15.0833368169  MEMB      152             0.0000000000
     17417       152  SAPE      H5X            16.6831849066      -31.3112617545      -14.8854918338  MEMB      152             0.0000000000
     17418       152  SAPE      H5Y            15.0013827017      -31.6641380233      -14.5428436715  MEMB      152             0.0000000000
     17419       152  SAPE      C36            15.4742089663      -29.5505772282      -14.5000730465  MEMB      152             0.0000000000
     17420       152  SAPE      H6X            14.4179133413      -29.2165025948      -14.5857461580  MEMB      152             0.0000000000
     17421       152  SAPE      H6Y            16.1120749268      -28.8827201426      -15.1152144506  MEMB      152             0.0000000000
     17422       152  SAPE      C37            15.9630204590      -29.5293573192      -13.0488165393  MEMB      152             0.0000000000
     17423       152  SAPE      H7X            17.0621573901      -29.4063725511      -13.0908886630  MEMB      152             0.0000000000
     17424       152  SAPE      H7Y            15.7092603156      -30.5327814258      -12.6437864355  MEMB      152             0.0000000000
     17425       152  SAPE      C38            15.4648705887      -28.5329544748      -12.0024273198  MEMB      152             0.0000000000
     17426       152  SAPE      H8X            14.3824720783      -28.3365155678      -12.1175852726  MEMB      152             0.0000000000
     17427       152  SAPE      H8Y            15.9782788101      -27.5567126705      -12.1323756575  MEMB      152             0.0000000000
     17428       152  SAPE      C39            15.7169506976      -29.0861624169      -10.5784473463  MEMB      152             0.0000000000
     17429       152  SAPE      H9X            16.1988690372      -30.0854706554      -10.5798536277  MEMB      152             0.0000000000
     17430       152  SAPE      H9Y            14.7289544777      -29.1851169327      -10.0848941931  MEMB      152             0.0000000000
     17431       152  SAPE      C310           16.5031420688      -28.1227288411       -9.7176028679  MEMB      152             0.0000000000
     17432       152  SAPE      H10X           15.9767104902      -27.1744090723       -9.8952922204  MEMB      152             0.0000000000
     17433       152  SAPE      H10Y           17.5427187313      -27.9812259252      -10.0871685020  MEMB      152             0.0000000000
     17434       152  SAPE      C311           16.5185446802      -28.4025955143       -8.2079871296  MEMB      152             0.0000000000
     17435       152  SAPE      H11X           16.4017538098      -27.4286851109       -7.6973387180  MEMB      152             0.0000000000
     17436       152  SAPE      H11Y           17.5350073737      -28.7430426545       -7.9946062578  MEMB      152             0.0000000000
     17437       152  SAPE      C312           15.5181427997      -29.3919199865       -7.5677279764  MEMB      152             0.0000000000
     17438       152  SAPE      H12X           15.7206808552      -30.4148030910       -7.9492862153  MEMB      152             0.0000000000
     17439       152  SAPE      H12Y           14.4753392446      -29.1489755548       -7.8491867529  MEMB      152             0.0000000000
     17440       152  SAPE      C313           15.6458517438      -29.3896219304       -6.0280238795  MEMB      152             0.0000000000
     17441       152  SAPE      H13X           16.3058224027      -28.5544204688       -5.7060980928  MEMB      152             0.0000000000
     17442       152  SAPE      H13Y           16.1650970590      -30.3293800194       -5.7415336229  MEMB      152             0.0000000000
     17443       152  SAPE      C314           14.3376420204      -29.2775888247       -5.2200401793  MEMB      152             0.0000000000
     17444       152  SAPE      H14X           13.5757158216      -29.9183931136       -5.7080552891  MEMB      152             0.0000000000
     17445       152  SAPE      H14Y           13.9594909445      -28.2302545990       -5.2286339924  MEMB      152             0.0000000000
     17446       152  SAPE      C315           14.5504544703      -29.7507043522       -3.7698862894  MEMB      152             0.0000000000
     17447       152  SAPE      H15X           14.6696088082      -28.9186593262       -3.0589188693  MEMB      152             0.0000000000
     17448       152  SAPE      H15Y           15.4922519190      -30.3364734101       -3.7537626425  MEMB      152             0.0000000000
     17449       152  SAPE      C316           13.4982379773      -30.7004958973       -3.2225326929  MEMB      152             0.0000000000
     17450       152  SAPE      H16X           14.0121721102      -31.4601481493       -2.5905897440  MEMB      152             0.0000000000
     17451       152  SAPE      H16Y           13.0380674106      -31.2197291467       -4.0825750999  MEMB      152             0.0000000000
     17452       152  SAPE      C317           12.4457216328      -30.0488148721       -2.3335372274  MEMB      152             0.0000000000
     17453       152  SAPE      H17X           11.5062138485      -30.6376375197       -2.4597874761  MEMB      152             0.0000000000
     17454       152  SAPE      H17Y           12.2251271248      -29.0087711810       -2.6572360487  MEMB      152             0.0000000000
     17455       152  SAPE      C318           12.8238795121      -30.0853185111       -0.8564978217  MEMB      152             0.0000000000
     17456       152  SAPE      H18X           12.0013745103      -30.5457813046       -0.3006971904  MEMB      152             0.0000000000
     17457       152  SAPE      H18Y           12.9437755561      -29.0727209937       -0.4352592857  MEMB      152             0.0000000000
     17458       152  SAPE      H18Z           13.7343719831      -30.6866872272       -0.6536651774  MEMB      152             0.0000000000
     17459       153  CHL1      C3             -2.5934655150       31.4889550829      -17.9474411864  MEMB      153             0.0000000000
     17460       153  CHL1      H3             -3.5202841857       31.9983515091      -18.2914134950  MEMB      153             0.0000000000
     17461       153  CHL1      O3             -1.8187956924       31.1717928565      -19.1054194363  MEMB      153             0.0000000000
     17462       153  CHL1      H3'            -1.5257875706       30.2581091883      -18.9778669178  MEMB      153             0.0000000000
     17463       153  CHL1      C4             -1.7761702228       32.4584650907      -17.0550975443  MEMB      153             0.0000000000
     17464       153  CHL1      H4A            -0.7260643681       32.0977457089      -17.0932523796  MEMB      153             0.0000000000
     17465       153  CHL1      H4B            -1.7829103749       33.4404020798      -17.5756170848  MEMB      153             0.0000000000
     17466       153  CHL1      C5             -2.1551910766       32.6197929053      -15.5902055084  MEMB      153             0.0000000000
     17467       153  CHL1      C6             -2.0922139589       33.7823940784      -14.9273597138  MEMB      153             0.0000000000
     17468       153  CHL1      H6             -1.7657190986       34.6872804205      -15.4542239172  MEMB      153             0.0000000000
     17469       153  CHL1      C7             -2.3083862907       33.9114366391      -13.4370500756  MEMB      153             0.0000000000
     17470       153  CHL1      H7A            -1.6173668574       34.6410580796      -12.9740135205  MEMB      153             0.0000000000
     17471       153  CHL1      H7B            -3.3309636627       34.2796238006      -13.2776340687  MEMB      153             0.0000000000
     17472       153  CHL1      C8             -2.2735989950       32.5920660331      -12.6359347434  MEMB      153             0.0000000000
     17473       153  CHL1      H8             -1.2373634111       32.2215153188      -12.5957216343  MEMB      153             0.0000000000
     17474       153  CHL1      C14            -2.7075009651       32.8023897603      -11.1642565680  MEMB      153             0.0000000000
     17475       153  CHL1      H14            -3.6917150735       33.2865219850      -11.2583272929  MEMB      153             0.0000000000
     17476       153  CHL1      C15            -1.9049273655       33.7231635780      -10.1931750755  MEMB      153             0.0000000000
     17477       153  CHL1      H15A           -0.8262790323       33.5312912119      -10.1973531077  MEMB      153             0.0000000000
     17478       153  CHL1      H15B           -2.0618058679       34.7936616681      -10.4124007823  MEMB      153             0.0000000000
     17479       153  CHL1      C16            -2.3036672781       33.2859735171       -8.7669614051  MEMB      153             0.0000000000
     17480       153  CHL1      H16A           -1.4135065218       32.8555015702       -8.2503632746  MEMB      153             0.0000000000
     17481       153  CHL1      H16B           -2.6895492644       34.1226462189       -8.1574253210  MEMB      153             0.0000000000
     17482       153  CHL1      C17            -3.3358292483       32.1521360714       -8.9690662715  MEMB      153             0.0000000000
     17483       153  CHL1      H17            -4.2820000601       32.6689000435       -9.2005305890  MEMB      153             0.0000000000
     17484       153  CHL1      C13            -2.9477602995       31.5304955597      -10.3650617533  MEMB      153             0.0000000000
     17485       153  CHL1      C18            -1.5539459919       30.8642561394      -10.2349708181  MEMB      153             0.0000000000
     17486       153  CHL1      H18A           -1.5055829749       29.8680477163      -10.7049756687  MEMB      153             0.0000000000
     17487       153  CHL1      H18B           -0.7495642837       31.4439077293      -10.7120105322  MEMB      153             0.0000000000
     17488       153  CHL1      H18C           -1.2604419150       30.7873186763       -9.1727212511  MEMB      153             0.0000000000
     17489       153  CHL1      C12            -4.0073493802       30.7315446988      -11.1825238372  MEMB      153             0.0000000000
     17490       153  CHL1      H12A           -4.3589107504       29.8236709151      -10.6702285773  MEMB      153             0.0000000000
     17491       153  CHL1      H12B           -4.9092686600       31.3632363274      -11.3144194094  MEMB      153             0.0000000000
     17492       153  CHL1      C11            -3.5054071445       30.3536452966      -12.5932322408  MEMB      153             0.0000000000
     17493       153  CHL1      H11A           -2.6258062262       29.6972505917      -12.4817704371  MEMB      153             0.0000000000
     17494       153  CHL1      H11B           -4.2798420359       29.7622509990      -13.1262455497  MEMB      153             0.0000000000
     17495       153  CHL1      C9             -3.1535842443       31.6057998425      -13.4314513733  MEMB      153             0.0000000000
     17496       153  CHL1      H9             -4.1375412095       32.1119057187      -13.5886642648  MEMB      153             0.0000000000
     17497       153  CHL1      C10            -2.5773709033       31.3509725202      -14.8686919155  MEMB      153             0.0000000000
     17498       153  CHL1      C19            -1.2238378841       30.6681961918      -14.6954508210  MEMB      153             0.0000000000
     17499       153  CHL1      H19A           -0.5007408241       31.2490077952      -14.1062850445  MEMB      153             0.0000000000
     17500       153  CHL1      H19B           -1.4139396492       29.7929059909      -14.0945250745  MEMB      153             0.0000000000
     17501       153  CHL1      H19C           -0.7411172155       30.3771884179      -15.6472157968  MEMB      153             0.0000000000
     17502       153  CHL1      C1             -3.5284657918       30.5010367295      -15.7694349655  MEMB      153             0.0000000000
     17503       153  CHL1      H1A            -3.7506647320       29.5302422402      -15.2789384160  MEMB      153             0.0000000000
     17504       153  CHL1      H1B            -4.4983110907       31.0325504643      -15.8533102942  MEMB      153             0.0000000000
     17505       153  CHL1      C2             -2.9773057198       30.2016290711      -17.1909907863  MEMB      153             0.0000000000
     17506       153  CHL1      H2A            -3.7534928226       29.6471335982      -17.7667852950  MEMB      153             0.0000000000
     17507       153  CHL1      H2B            -2.0922009244       29.5354277084      -17.1014484361  MEMB      153             0.0000000000
     17508       153  CHL1      C20            -3.5785139626       31.2757823025       -7.6981448211  MEMB      153             0.0000000000
     17509       153  CHL1      H20            -2.6376686638       30.7311253151       -7.4709701865  MEMB      153             0.0000000000
     17510       153  CHL1      C21            -4.6804283488       30.2696650703       -8.1146344769  MEMB      153             0.0000000000
     17511       153  CHL1      H21A           -5.3333976507       29.9975242081       -7.2617940990  MEMB      153             0.0000000000
     17512       153  CHL1      H21B           -4.2149823824       29.3413881895       -8.4954105870  MEMB      153             0.0000000000
     17513       153  CHL1      H21C           -5.3231100943       30.6717045659       -8.9192629681  MEMB      153             0.0000000000
     17514       153  CHL1      C22            -4.0125188783       31.9766712431       -6.3310606612  MEMB      153             0.0000000000
     17515       153  CHL1      H22A           -3.9309630074       33.0743562962       -6.4570227674  MEMB      153             0.0000000000
     17516       153  CHL1      H22B           -5.0895995135       31.7521543667       -6.2009019161  MEMB      153             0.0000000000
     17517       153  CHL1      C23            -3.3553969335       31.6221046442       -4.9263301614  MEMB      153             0.0000000000
     17518       153  CHL1      H23A           -2.7488355047       30.7089197720       -4.9668737529  MEMB      153             0.0000000000
     17519       153  CHL1      H23B           -2.6787650996       32.4719600688       -4.7507215856  MEMB      153             0.0000000000
     17520       153  CHL1      C24            -4.3366501401       31.5404527522       -3.6927978956  MEMB      153             0.0000000000
     17521       153  CHL1      H24A           -4.7497121995       32.5698869098       -3.6439197675  MEMB      153             0.0000000000
     17522       153  CHL1      H24B           -5.1600361947       30.8597965508       -3.9852103458  MEMB      153             0.0000000000
     17523       153  CHL1      C25            -4.0135942082       31.2373769232       -2.1550338401  MEMB      153             0.0000000000
     17524       153  CHL1      H25            -3.6003229028       32.1781171526       -1.7212397103  MEMB      153             0.0000000000
     17525       153  CHL1      C26            -5.3233169004       30.9403167746       -1.3986121298  MEMB      153             0.0000000000
     17526       153  CHL1      H26A           -5.1279262688       30.9073827112       -0.3061670764  MEMB      153             0.0000000000
     17527       153  CHL1      H26B           -6.1101098204       31.6822558485       -1.5925154471  MEMB      153             0.0000000000
     17528       153  CHL1      H26C           -5.6972637692       29.9443315383       -1.7047274078  MEMB      153             0.0000000000
     17529       153  CHL1      C27            -3.0787024622       30.1000990078       -1.6667734262  MEMB      153             0.0000000000
     17530       153  CHL1      H27A           -3.5128303173       29.5545173951       -0.7991504411  MEMB      153             0.0000000000
     17531       153  CHL1      H27B           -2.7970601044       29.3675277206       -2.4393074896  MEMB      153             0.0000000000
     17532       153  CHL1      H27C           -2.1562621771       30.5439523470       -1.2536123051  MEMB      153             0.0000000000
     17533       154  SAPE      N             -25.1645946592      -21.3033419984      -22.0020539080  MEMB      154             0.0000000000
     17534       154  SAPE      HN1           -24.1881925711      -21.0024121800      -21.7720968900  MEMB      154             0.0000000000
     17535       154  SAPE      HN2           -25.1295609623      -21.7920732190      -22.9257661868  MEMB      154             0.0000000000
     17536       154  SAPE      HN3           -25.7946371017      -20.4805380010      -22.0446155093  MEMB      154             0.0000000000
     17537       154  SAPE      C12           -25.5195725922      -22.2767990617      -20.9058935757  MEMB      154             0.0000000000
     17538       154  SAPE      H12A          -25.0485605102      -23.2497196732      -21.1665916204  MEMB      154             0.0000000000
     17539       154  SAPE      H12B          -26.6178446201      -22.4101932001      -20.8771099258  MEMB      154             0.0000000000
     17540       154  SAPE      C11           -24.9649151771      -21.7533328033      -19.5712303597  MEMB      154             0.0000000000
     17541       154  SAPE      H11A          -24.9645781566      -22.5543940748      -18.7975219683  MEMB      154             0.0000000000
     17542       154  SAPE      H11B          -25.6532785268      -20.9672685308      -19.1864133978  MEMB      154             0.0000000000
     17543       154  SAPE      P             -22.3299387058      -22.0043128167      -19.8371917229  MEMB      154             0.0000000000
     17544       154  SAPE      O13           -22.5223278820      -22.9656061993      -20.9401571521  MEMB      154             0.0000000000
     17545       154  SAPE      O14           -21.2122104230      -21.0568806254      -19.9917324638  MEMB      154             0.0000000000
     17546       154  SAPE      O12           -23.6759530204      -21.1696391088      -19.7477180127  MEMB      154             0.0000000000
     17547       154  SAPE      O11           -22.2667464161      -22.8040458014      -18.4630126996  MEMB      154             0.0000000000
     17548       154  SAPE      C1            -22.7893050600      -24.1460142970      -18.3460735714  MEMB      154             0.0000000000
     17549       154  SAPE      HA            -23.8138812474      -24.2345998159      -18.7761490507  MEMB      154             0.0000000000
     17550       154  SAPE      HB            -22.1353424979      -24.8578918985      -18.9008796751  MEMB      154             0.0000000000
     17551       154  SAPE      C2            -22.8973416081      -24.6563417934      -16.8641505525  MEMB      154             0.0000000000
     17552       154  SAPE      HS            -23.3502642254      -25.6714019212      -16.8843097964  MEMB      154             0.0000000000
     17553       154  SAPE      O21           -23.7628855620      -23.7579739210      -16.1329710077  MEMB      154             0.0000000000
     17554       154  SAPE      C21           -24.0622386045      -24.0536606064      -14.8682391180  MEMB      154             0.0000000000
     17555       154  SAPE      O22           -23.6360709835      -25.0085388805      -14.2429616895  MEMB      154             0.0000000000
     17556       154  SAPE      C22           -25.0567667869      -23.0184199493      -14.3395430592  MEMB      154             0.0000000000
     17557       154  SAPE      H2R           -24.5925996819      -22.0149172933      -14.4254150380  MEMB      154             0.0000000000
     17558       154  SAPE      H2S           -25.9568984076      -23.0708902046      -14.9876593531  MEMB      154             0.0000000000
     17559       154  SAPE      C3            -21.4621039266      -24.7711356745      -16.2361683619  MEMB      154             0.0000000000
     17560       154  SAPE      HX            -20.9418813747      -25.5634608693      -16.8164044851  MEMB      154             0.0000000000
     17561       154  SAPE      HY            -21.4872069976      -25.1578762550      -15.1910540593  MEMB      154             0.0000000000
     17562       154  SAPE      O31           -20.6835599800      -23.5624430071      -16.3771262180  MEMB      154             0.0000000000
     17563       154  SAPE      C31           -20.9325145813      -22.6793535312      -15.4225984599  MEMB      154             0.0000000000
     17564       154  SAPE      O32           -21.5733697035      -22.9096177663      -14.4128796606  MEMB      154             0.0000000000
     17565       154  SAPE      C32           -20.2187849789      -21.3660001689      -15.6994627876  MEMB      154             0.0000000000
     17566       154  SAPE      H2X           -20.9285274812      -20.6842280120      -16.2120129230  MEMB      154             0.0000000000
     17567       154  SAPE      H2Y           -19.3570539434      -21.5643507188      -16.3677808164  MEMB      154             0.0000000000
     17568       154  SAPE      C23           -25.4368579418      -23.3095702415      -12.8751338028  MEMB      154             0.0000000000
     17569       154  SAPE      H3R           -24.5420196046      -23.1583698287      -12.2249543933  MEMB      154             0.0000000000
     17570       154  SAPE      H3S           -25.7276436675      -24.3809630278      -12.8142337304  MEMB      154             0.0000000000
     17571       154  SAPE      C24           -26.6218122577      -22.4789834958      -12.3569631219  MEMB      154             0.0000000000
     17572       154  SAPE      H4R           -27.5043384623      -22.6697966257      -13.0075938402  MEMB      154             0.0000000000
     17573       154  SAPE      H4S           -26.3670397655      -21.4007689812      -12.4540006988  MEMB      154             0.0000000000
     17574       154  SAPE      C25           -26.9317835393      -22.8776872506      -10.9336086552  MEMB      154             0.0000000000
     17575       154  SAPE      H5R           -27.4449854835      -23.8430507767      -10.8255683543  MEMB      154             0.0000000000
     17576       154  SAPE      C26           -26.5851368792      -22.2094136773       -9.8216813667  MEMB      154             0.0000000000
     17577       154  SAPE      H6R           -26.8519386540      -22.6233738233       -8.8355078290  MEMB      154             0.0000000000
     17578       154  SAPE      C27           -25.8139170181      -20.9198337270       -9.7745720283  MEMB      154             0.0000000000
     17579       154  SAPE      H7R           -25.1832626179      -20.8085025064      -10.6790798880  MEMB      154             0.0000000000
     17580       154  SAPE      H7S           -25.0979174663      -20.9678752707       -8.9238175585  MEMB      154             0.0000000000
     17581       154  SAPE      C28           -26.7025532876      -19.7113113624       -9.6641096700  MEMB      154             0.0000000000
     17582       154  SAPE      H8R           -27.0034090551      -19.2600646764      -10.6227845963  MEMB      154             0.0000000000
     17583       154  SAPE      C29           -27.1545402272      -19.1941882002       -8.5102522232  MEMB      154             0.0000000000
     17584       154  SAPE      H9R           -27.8273145873      -18.3232025609       -8.5479868127  MEMB      154             0.0000000000
     17585       154  SAPE      C210          -26.8488041300      -19.7391440676       -7.1333625003  MEMB      154             0.0000000000
     17586       154  SAPE      H10R          -25.9978662840      -20.4523267330       -7.1321058507  MEMB      154             0.0000000000
     17587       154  SAPE      H10S          -27.7148329774      -20.3610952102       -6.8201997272  MEMB      154             0.0000000000
     17588       154  SAPE      C211          -26.5918777845      -18.6634249682       -6.1054676110  MEMB      154             0.0000000000
     17589       154  SAPE      H11R          -26.6280417333      -17.6192463772       -6.4581347833  MEMB      154             0.0000000000
     17590       154  SAPE      C212          -26.3936934533      -18.9071676644       -4.7981396451  MEMB      154             0.0000000000
     17591       154  SAPE      H12R          -26.2544880547      -18.0549316342       -4.1141815078  MEMB      154             0.0000000000
     17592       154  SAPE      C213          -26.3925021292      -20.2757124834       -4.1555418156  MEMB      154             0.0000000000
     17593       154  SAPE      H13R          -26.0067131949      -20.1627645337       -3.1198901922  MEMB      154             0.0000000000
     17594       154  SAPE      H13S          -25.6679805860      -20.9330708905       -4.6815784015  MEMB      154             0.0000000000
     17595       154  SAPE      C214          -27.7509740146      -20.9346928501       -4.0947572522  MEMB      154             0.0000000000
     17596       154  SAPE      H14R          -28.5827857441      -20.2490112528       -4.1357499994  MEMB      154             0.0000000000
     17597       154  SAPE      C215          -28.0707081874      -22.2314594479       -4.0484186975  MEMB      154             0.0000000000
     17598       154  SAPE      H15R          -29.1307241206      -22.5120172863       -3.9354912581  MEMB      154             0.0000000000
     17599       154  SAPE      C216          -27.0962234882      -23.3638845748       -4.0449901994  MEMB      154             0.0000000000
     17600       154  SAPE      H16R          -26.1553521051      -23.1060348613       -4.5779956740  MEMB      154             0.0000000000
     17601       154  SAPE      H16S          -27.5447219524      -24.2200241299       -4.5746665624  MEMB      154             0.0000000000
     17602       154  SAPE      C217          -26.8015719035      -23.8027937437       -2.6111023566  MEMB      154             0.0000000000
     17603       154  SAPE      H17R          -26.1906463817      -24.7263387547       -2.6536836418  MEMB      154             0.0000000000
     17604       154  SAPE      H17S          -27.7500697890      -24.0825660491       -2.1010414048  MEMB      154             0.0000000000
     17605       154  SAPE      C218          -26.0810282901      -22.7407576815       -1.7675452966  MEMB      154             0.0000000000
     17606       154  SAPE      H18R          -26.7063050835      -21.8215940707       -1.7196810463  MEMB      154             0.0000000000
     17607       154  SAPE      H18S          -25.1103189995      -22.4595849080       -2.2283573096  MEMB      154             0.0000000000
     17608       154  SAPE      C219          -25.8846107555      -23.2369791631       -0.3396793550  MEMB      154             0.0000000000
     17609       154  SAPE      H19R          -25.0660726104      -23.9859378558       -0.3078436891  MEMB      154             0.0000000000
     17610       154  SAPE      H19S          -26.8242112891      -23.7648077244       -0.0760261277  MEMB      154             0.0000000000
     17611       154  SAPE      C220          -25.6399282175      -22.1319904735        0.6832019951  MEMB      154             0.0000000000
     17612       154  SAPE      H20R          -25.4432137967      -22.5735068019        1.6839435313  MEMB      154             0.0000000000
     17613       154  SAPE      H20S          -26.5359098196      -21.4776585616        0.7608640703  MEMB      154             0.0000000000
     17614       154  SAPE      H20T          -24.7679162199      -21.5098863042        0.3873352010  MEMB      154             0.0000000000
     17615       154  SAPE      C33           -19.7644581655      -20.7871459713      -14.3467873166  MEMB      154             0.0000000000
     17616       154  SAPE      H3X           -18.9521302747      -20.0471918532      -14.4967326411  MEMB      154             0.0000000000
     17617       154  SAPE      H3Y           -19.3466290434      -21.5988816939      -13.7091425817  MEMB      154             0.0000000000
     17618       154  SAPE      C34           -20.9087082910      -20.1487705164      -13.5547460409  MEMB      154             0.0000000000
     17619       154  SAPE      H4X           -21.8445722946      -20.7422557925      -13.6362599097  MEMB      154             0.0000000000
     17620       154  SAPE      H4Y           -21.1753722467      -19.1614285219      -13.9794256469  MEMB      154             0.0000000000
     17621       154  SAPE      C35           -20.5443791151      -20.0858237999      -12.0695652020  MEMB      154             0.0000000000
     17622       154  SAPE      H5X           -19.7104887378      -19.3923776047      -11.8586617533  MEMB      154             0.0000000000
     17623       154  SAPE      H5Y           -20.1256531251      -21.0670870721      -11.7763979677  MEMB      154             0.0000000000
     17624       154  SAPE      C36           -21.7510126236      -19.6845699504      -11.2283907525  MEMB      154             0.0000000000
     17625       154  SAPE      H6X           -22.4035749964      -18.9914888061      -11.8084231110  MEMB      154             0.0000000000
     17626       154  SAPE      H6Y           -21.3970060004      -19.1163532033      -10.3435760656  MEMB      154             0.0000000000
     17627       154  SAPE      C37           -22.5492066455      -20.8929463204      -10.7317654779  MEMB      154             0.0000000000
     17628       154  SAPE      H7X           -23.2074295540      -21.2870533671      -11.5365458107  MEMB      154             0.0000000000
     17629       154  SAPE      H7Y           -23.1941606760      -20.5202177907       -9.9063671852  MEMB      154             0.0000000000
     17630       154  SAPE      C38           -21.6756798199      -22.0471379869      -10.2124438010  MEMB      154             0.0000000000
     17631       154  SAPE      H8X           -20.7903956795      -21.6034066917       -9.6921149661  MEMB      154             0.0000000000
     17632       154  SAPE      H8Y           -21.3069085094      -22.6549208679      -11.0661009247  MEMB      154             0.0000000000
     17633       154  SAPE      C39           -22.4062281404      -22.9325059945       -9.2083755355  MEMB      154             0.0000000000
     17634       154  SAPE      H9X           -21.9417719753      -23.9434420189       -9.1748674758  MEMB      154             0.0000000000
     17635       154  SAPE      H9Y           -23.4697714419      -23.0431575972       -9.5102362708  MEMB      154             0.0000000000
     17636       154  SAPE      C310          -22.2425533069      -22.2434520273       -7.8684189397  MEMB      154             0.0000000000
     17637       154  SAPE      H10X          -22.4201610595      -21.1487041925       -8.0096779306  MEMB      154             0.0000000000
     17638       154  SAPE      H10Y          -21.1735958361      -22.3633528021       -7.5788875004  MEMB      154             0.0000000000
     17639       154  SAPE      C311          -23.1666314728      -22.6653064645       -6.7415238990  MEMB      154             0.0000000000
     17640       154  SAPE      H11X          -22.9147064992      -23.6879999432       -6.3795233283  MEMB      154             0.0000000000
     17641       154  SAPE      H11Y          -24.2323111389      -22.6613970998       -7.0638481698  MEMB      154             0.0000000000
     17642       154  SAPE      C312          -22.9842908680      -21.6381720036       -5.6235037558  MEMB      154             0.0000000000
     17643       154  SAPE      H12X          -23.6193920619      -21.9798420683       -4.7838242524  MEMB      154             0.0000000000
     17644       154  SAPE      H12Y          -23.3793978851      -20.6437812528       -5.9290266440  MEMB      154             0.0000000000
     17645       154  SAPE      C313          -21.4911604102      -21.4555814352       -5.2800941060  MEMB      154             0.0000000000
     17646       154  SAPE      H13X          -21.0216864937      -20.6985678163       -5.9409559775  MEMB      154             0.0000000000
     17647       154  SAPE      H13Y          -20.9630606629      -22.4257826863       -5.4601884065  MEMB      154             0.0000000000
     17648       154  SAPE      C314          -21.2518830213      -21.1407650637       -3.8223571788  MEMB      154             0.0000000000
     17649       154  SAPE      H14X          -21.6073778933      -20.1294314779       -3.5343445041  MEMB      154             0.0000000000
     17650       154  SAPE      H14Y          -20.1548116822      -21.1711812482       -3.6200644671  MEMB      154             0.0000000000
     17651       154  SAPE      C315          -21.9895253132      -22.2105535427       -3.0334747746  MEMB      154             0.0000000000
     17652       154  SAPE      H15X          -22.0124925520      -23.1699373314       -3.6036642364  MEMB      154             0.0000000000
     17653       154  SAPE      H15Y          -23.0335116590      -21.8777583953       -2.8357657455  MEMB      154             0.0000000000
     17654       154  SAPE      C316          -21.3189827419      -22.4829836503       -1.7375520175  MEMB      154             0.0000000000
     17655       154  SAPE      H16X          -21.9902211416      -23.0667160119       -1.0667218737  MEMB      154             0.0000000000
     17656       154  SAPE      H16Y          -21.1981019104      -21.4777511841       -1.3044547314  MEMB      154             0.0000000000
     17657       154  SAPE      C317          -19.9892011700      -23.2039799783       -1.9292464765  MEMB      154             0.0000000000
     17658       154  SAPE      H17X          -19.2103227834      -22.6887295930       -1.3234253922  MEMB      154             0.0000000000
     17659       154  SAPE      H17Y          -19.6582832062      -23.1639693455       -2.9923705610  MEMB      154             0.0000000000
     17660       154  SAPE      C318          -20.1100145077      -24.6576045715       -1.5147219205  MEMB      154             0.0000000000
     17661       154  SAPE      H18X          -20.4436351861      -25.2954123570       -2.3603687923  MEMB      154             0.0000000000
     17662       154  SAPE      H18Y          -20.8176928541      -24.7745623269       -0.6659372924  MEMB      154             0.0000000000
     17663       154  SAPE      H18Z          -19.1473628361      -25.0475429726       -1.1807394666  MEMB      154             0.0000000000
     17664       155  SOPE      N               7.7196805044       30.6432546992      -24.4907373521  MEMB      155             0.0000000000
     17665       155  SOPE      HN1             8.3753396800       31.4321380912      -24.2593852042  MEMB      155             0.0000000000
     17666       155  SOPE      HN2             8.1820690288       30.0895740188      -25.2682932191  MEMB      155             0.0000000000
     17667       155  SOPE      HN3             6.8665093161       31.0809383682      -24.8862845019  MEMB      155             0.0000000000
     17668       155  SOPE      C12             7.3913541264       29.7410048065      -23.3243573938  MEMB      155             0.0000000000
     17669       155  SOPE      H12A            8.3428475625       29.4550473983      -22.8316583199  MEMB      155             0.0000000000
     17670       155  SOPE      H12B            6.9064540244       28.8315629892      -23.7362445222  MEMB      155             0.0000000000
     17671       155  SOPE      C11             6.4421625744       30.4097054515      -22.3194707322  MEMB      155             0.0000000000
     17672       155  SOPE      H11A            6.0189074914       29.6170669341      -21.6581171192  MEMB      155             0.0000000000
     17673       155  SOPE      H11B            5.5973697958       30.8833688274      -22.8650741453  MEMB      155             0.0000000000
     17674       155  SOPE      P               6.3632524983       32.0575914296      -20.3241655870  MEMB      155             0.0000000000
     17675       155  SOPE      O13             4.9154951212       31.7790025292      -20.5182943335  MEMB      155             0.0000000000
     17676       155  SOPE      O14             6.8314203286       33.4691307977      -20.3251472899  MEMB      155             0.0000000000
     17677       155  SOPE      O12             7.1331439098       31.3808511720      -21.5456793146  MEMB      155             0.0000000000
     17678       155  SOPE      O11             6.8538420630       31.2568001373      -19.0741399888  MEMB      155             0.0000000000
     17679       155  SOPE      C1              8.0571689623       31.6297392886      -18.4259182322  MEMB      155             0.0000000000
     17680       155  SOPE      HA              7.8323832679       32.4135462147      -17.6669879973  MEMB      155             0.0000000000
     17681       155  SOPE      HB              8.8083413301       32.0524363082      -19.1439463287  MEMB      155             0.0000000000
     17682       155  SOPE      C2              8.7508948871       30.4161370742      -17.7414410797  MEMB      155             0.0000000000
     17683       155  SOPE      HS              9.0368138512       29.6960299753      -18.5425727771  MEMB      155             0.0000000000
     17684       155  SOPE      O21             7.9194706191       29.7760818184      -16.7319137240  MEMB      155             0.0000000000
     17685       155  SOPE      C21             7.1204346020       28.8104170452      -17.1909012573  MEMB      155             0.0000000000
     17686       155  SOPE      O22             7.0814894967       28.4071942656      -18.3376549195  MEMB      155             0.0000000000
     17687       155  SOPE      C22             6.2793382111       28.2160564387      -16.0327214236  MEMB      155             0.0000000000
     17688       155  SOPE      H2R             5.6249650734       27.4437863714      -16.4862789837  MEMB      155             0.0000000000
     17689       155  SOPE      H2S             5.6389388978       29.0143580068      -15.6131925631  MEMB      155             0.0000000000
     17690       155  SOPE      C3             10.0739060754       30.9509372395      -17.1199669555  MEMB      155             0.0000000000
     17691       155  SOPE      HX             10.6979447661       31.3338963377      -17.9588315828  MEMB      155             0.0000000000
     17692       155  SOPE      HY             10.6640001322       30.1332964284      -16.6472623005  MEMB      155             0.0000000000
     17693       155  SOPE      O31             9.7914186709       32.0619455361      -16.2391167978  MEMB      155             0.0000000000
     17694       155  SOPE      C31             9.6660169602       31.7139004179      -14.9770195523  MEMB      155             0.0000000000
     17695       155  SOPE      O32             9.9981814881       30.6523240300      -14.4916412178  MEMB      155             0.0000000000
     17696       155  SOPE      C32             9.1377862347       32.8693247932      -14.1463832143  MEMB      155             0.0000000000
     17697       155  SOPE      H2X             8.5129125565       32.4270703731      -13.3391537858  MEMB      155             0.0000000000
     17698       155  SOPE      H2Y             8.4939398182       33.5371658697      -14.7511481255  MEMB      155             0.0000000000
     17699       155  SOPE      C23             7.0581929684       27.5237845857      -14.8774718806  MEMB      155             0.0000000000
     17700       155  SOPE      H3R             7.5812698518       26.6285745093      -15.2526013285  MEMB      155             0.0000000000
     17701       155  SOPE      H3S             6.3278840132       27.1532085578      -14.1207325773  MEMB      155             0.0000000000
     17702       155  SOPE      C24             8.0800286420       28.4138877211      -14.1701082008  MEMB      155             0.0000000000
     17703       155  SOPE      H4R             8.9163106342       28.6130672403      -14.8689416397  MEMB      155             0.0000000000
     17704       155  SOPE      H4S             7.6271233580       29.4021729440      -13.9474016650  MEMB      155             0.0000000000
     17705       155  SOPE      C25             8.6480616218       27.7775982908      -12.8945012574  MEMB      155             0.0000000000
     17706       155  SOPE      H5R             8.2276177500       26.7496006467      -12.8377406430  MEMB      155             0.0000000000
     17707       155  SOPE      H5S             9.7541638558       27.6766439845      -12.9584488170  MEMB      155             0.0000000000
     17708       155  SOPE      C26             8.2548854436       28.5404806424      -11.6233829030  MEMB      155             0.0000000000
     17709       155  SOPE      H6R             7.6062461127       29.4025793911      -11.8924453568  MEMB      155             0.0000000000
     17710       155  SOPE      H6S             7.6197731437       27.8835312560      -10.9950173918  MEMB      155             0.0000000000
     17711       155  SOPE      C27             9.4160489476       29.0288905008      -10.7324959885  MEMB      155             0.0000000000
     17712       155  SOPE      H7R            10.2217272269       28.2613367090      -10.6884096064  MEMB      155             0.0000000000
     17713       155  SOPE      H7S             9.8666476699       29.9388131534      -11.1919281694  MEMB      155             0.0000000000
     17714       155  SOPE      C28             8.9337337906       29.3077434191       -9.2863909262  MEMB      155             0.0000000000
     17715       155  SOPE      H8R             8.7841034520       28.3464603834       -8.7665377164  MEMB      155             0.0000000000
     17716       155  SOPE      H8S             9.7265906497       29.8652372020       -8.7395407692  MEMB      155             0.0000000000
     17717       155  SOPE      C29             7.6389468447       30.0749657330       -9.3189283599  MEMB      155             0.0000000000
     17718       155  SOPE      H91             7.6826748308       30.8772269663      -10.0678421574  MEMB      155             0.0000000000
     17719       155  SOPE      C210            6.4684614049       29.9060917029       -8.6642422945  MEMB      155             0.0000000000
     17720       155  SOPE      H101            5.6576550763       30.6097264968       -8.9004748197  MEMB      155             0.0000000000
     17721       155  SOPE      C211            6.0435021437       28.8797651007       -7.6519198664  MEMB      155             0.0000000000
     17722       155  SOPE      H11R            5.9708414312       27.8923506463       -8.1594106150  MEMB      155             0.0000000000
     17723       155  SOPE      H11S            5.0205091128       29.1173321786       -7.2816737913  MEMB      155             0.0000000000
     17724       155  SOPE      C212            6.9462249480       28.7459249794       -6.4143363429  MEMB      155             0.0000000000
     17725       155  SOPE      H12R            8.0004541399       28.6261087833       -6.7419105400  MEMB      155             0.0000000000
     17726       155  SOPE      H12S            6.6407420726       27.8191395340       -5.8763667389  MEMB      155             0.0000000000
     17727       155  SOPE      C213            6.9281345637       29.8923241512       -5.4108808723  MEMB      155             0.0000000000
     17728       155  SOPE      H13R            5.8850848654       30.1067492198       -5.0978385432  MEMB      155             0.0000000000
     17729       155  SOPE      H13S            7.3279625766       30.7914642173       -5.9287449737  MEMB      155             0.0000000000
     17730       155  SOPE      C214            7.8147044890       29.5677428577       -4.1902313886  MEMB      155             0.0000000000
     17731       155  SOPE      H14R            8.0646788293       30.5103833613       -3.6576431502  MEMB      155             0.0000000000
     17732       155  SOPE      H14S            8.7745249024       29.1395164204       -4.5562396956  MEMB      155             0.0000000000
     17733       155  SOPE      C215            7.1733264276       28.5963355937       -3.1787479363  MEMB      155             0.0000000000
     17734       155  SOPE      H15R            7.9591675312       28.2291789127       -2.4804553186  MEMB      155             0.0000000000
     17735       155  SOPE      H15S            6.7719785584       27.7076877380       -3.7122868186  MEMB      155             0.0000000000
     17736       155  SOPE      C216            6.0675799618       29.2731503369       -2.3583774655  MEMB      155             0.0000000000
     17737       155  SOPE      H16R            5.8581807488       30.2641469392       -2.8202530377  MEMB      155             0.0000000000
     17738       155  SOPE      H16S            6.4089385888       29.4684273715       -1.3188224751  MEMB      155             0.0000000000
     17739       155  SOPE      C217            4.7302671610       28.5336409210       -2.3259528733  MEMB      155             0.0000000000
     17740       155  SOPE      H17R            4.7932425436       27.6155859469       -1.6986058868  MEMB      155             0.0000000000
     17741       155  SOPE      H17S            4.4632984308       28.2399127219       -3.3594558356  MEMB      155             0.0000000000
     17742       155  SOPE      C218            3.6424369074       29.4669850216       -1.8252948057  MEMB      155             0.0000000000
     17743       155  SOPE      H18R            3.8760151411       29.7992451002       -0.7922056545  MEMB      155             0.0000000000
     17744       155  SOPE      H18S            2.6333450558       29.0333296907       -1.8193118765  MEMB      155             0.0000000000
     17745       155  SOPE      H18T            3.5875662639       30.3548036154       -2.4908672928  MEMB      155             0.0000000000
     17746       155  SOPE      C33            10.3619760568       33.5879508742      -13.5518499904  MEMB      155             0.0000000000
     17747       155  SOPE      H3X            10.8312847202       34.2519327798      -14.2982944487  MEMB      155             0.0000000000
     17748       155  SOPE      H3Y            11.1319632001       32.8516590192      -13.2870702661  MEMB      155             0.0000000000
     17749       155  SOPE      C34            10.1214608173       34.2071081413      -12.1856892100  MEMB      155             0.0000000000
     17750       155  SOPE      H4X             9.1516742888       34.7354173029      -12.2136930723  MEMB      155             0.0000000000
     17751       155  SOPE      H4Y            10.9282362800       34.9462666354      -11.9743425079  MEMB      155             0.0000000000
     17752       155  SOPE      C35            10.1492632606       33.0793714522      -11.1373025857  MEMB      155             0.0000000000
     17753       155  SOPE      H5X            11.2087634359       32.8586860016      -10.8777380885  MEMB      155             0.0000000000
     17754       155  SOPE      H5Y             9.7540944650       32.1571872852      -11.6246773786  MEMB      155             0.0000000000
     17755       155  SOPE      C36             9.3193687245       33.2401737111       -9.8527837317  MEMB      155             0.0000000000
     17756       155  SOPE      H6X             9.8806436238       33.8309583473       -9.0979000518  MEMB      155             0.0000000000
     17757       155  SOPE      H6Y             9.2313943528       32.2162936787       -9.4329127628  MEMB      155             0.0000000000
     17758       155  SOPE      C37             7.9170455887       33.8550090599      -10.0317055653  MEMB      155             0.0000000000
     17759       155  SOPE      H7X             7.5984302532       33.8159117694      -11.0963362371  MEMB      155             0.0000000000
     17760       155  SOPE      H7Y             7.9966844915       34.9136994897       -9.7263968802  MEMB      155             0.0000000000
     17761       155  SOPE      C38             6.7733533823       33.2918614936       -9.1692232772  MEMB      155             0.0000000000
     17762       155  SOPE      H8X             6.3804848427       32.3865237772       -9.6632183522  MEMB      155             0.0000000000
     17763       155  SOPE      H8Y             5.9292310873       34.0174319753       -9.1983564757  MEMB      155             0.0000000000
     17764       155  SOPE      C39             7.1524831221       33.0225694192       -7.7007069251  MEMB      155             0.0000000000
     17765       155  SOPE      H9X             8.1369533603       32.5209370699       -7.6177205906  MEMB      155             0.0000000000
     17766       155  SOPE      H9Y             6.3966315796       32.3364027991       -7.2509519861  MEMB      155             0.0000000000
     17767       155  SOPE      C310            7.1256989798       34.3159349305       -6.8894162076  MEMB      155             0.0000000000
     17768       155  SOPE      H10X            6.0719581492       34.4206831311       -6.5899096735  MEMB      155             0.0000000000
     17769       155  SOPE      H10Y            7.3830469399       35.1694284042       -7.5607426209  MEMB      155             0.0000000000
     17770       155  SOPE      C311            8.0442786642       34.4214513529       -5.6620874254  MEMB      155             0.0000000000
     17771       155  SOPE      H11X            7.8721755046       35.4205508768       -5.1996492102  MEMB      155             0.0000000000
     17772       155  SOPE      H11Y            9.0835543633       34.3928521285       -6.0511345810  MEMB      155             0.0000000000
     17773       155  SOPE      C312            7.9372685341       33.3596480160       -4.5552100932  MEMB      155             0.0000000000
     17774       155  SOPE      H12X            8.6146090258       33.6548844056       -3.7217459574  MEMB      155             0.0000000000
     17775       155  SOPE      H12Y            8.3340688325       32.4044596333       -4.9609611650  MEMB      155             0.0000000000
     17776       155  SOPE      C313            6.5345062141       33.1406637444       -3.9690894548  MEMB      155             0.0000000000
     17777       155  SOPE      H13X            6.4248528045       32.0635525774       -3.7232228765  MEMB      155             0.0000000000
     17778       155  SOPE      H13Y            5.7555338349       33.3618411428       -4.7275099278  MEMB      155             0.0000000000
     17779       155  SOPE      C314            6.2801948241       33.9422010981       -2.6777163386  MEMB      155             0.0000000000
     17780       155  SOPE      H14X            6.3907557718       35.0227741159       -2.9148664196  MEMB      155             0.0000000000
     17781       155  SOPE      H14Y            7.0472767922       33.6681889106       -1.9213147342  MEMB      155             0.0000000000
     17782       155  SOPE      C315            4.8821390113       33.6512626228       -2.1039385387  MEMB      155             0.0000000000
     17783       155  SOPE      H15X            4.8538295891       32.6165413424       -1.6999716185  MEMB      155             0.0000000000
     17784       155  SOPE      H15Y            4.1925989839       33.6845507827       -2.9771196058  MEMB      155             0.0000000000
     17785       155  SOPE      C316            4.3577872846       34.6233053731       -1.0226817091  MEMB      155             0.0000000000
     17786       155  SOPE      H16X            5.1212704206       35.4130892436       -0.8647500020  MEMB      155             0.0000000000
     17787       155  SOPE      H16Y            4.3802329968       34.1283331068       -0.0468710160  MEMB      155             0.0000000000
     17788       155  SOPE      C317            2.9920018944       35.2540195731       -1.4440886008  MEMB      155             0.0000000000
     17789       155  SOPE      H17X            2.7442622567       34.9207303775       -2.4711244962  MEMB      155             0.0000000000
     17790       155  SOPE      H17Y            3.2250387240       36.3059231047       -1.4987479897  MEMB      155             0.0000000000
     17791       155  SOPE      C318            1.6926396215       35.4058070509       -0.6272706415  MEMB      155             0.0000000000
     17792       155  SOPE      H18X            0.9887457856       36.0251896815       -1.2300390593  MEMB      155             0.0000000000
     17793       155  SOPE      H18Y            1.8570146896       35.9460588729        0.3225431813  MEMB      155             0.0000000000
     17794       155  SOPE      H18Z            1.1700725557       34.4602923998       -0.4309340932  MEMB      155             0.0000000000
     17795       156  SAPC      N              -2.4333804363      -31.9667779843      -19.9569662678  MEMB      156             0.0000000000
     17796       156  SAPC      C12            -3.4768215131      -30.8563695891      -20.0726657796  MEMB      156             0.0000000000
     17797       156  SAPC      H12A           -2.9855850047      -29.8938387383      -20.0536405837  MEMB      156             0.0000000000
     17798       156  SAPC      H12B           -4.1479796431      -30.8723844959      -19.2158470335  MEMB      156             0.0000000000
     17799       156  SAPC      C13            -1.6347459060      -31.8185871358      -18.7006592368  MEMB      156             0.0000000000
     17800       156  SAPC      H13A           -2.2660644476      -31.6799777319      -17.8275146539  MEMB      156             0.0000000000
     17801       156  SAPC      H13B           -1.0184037999      -32.6905009659      -18.5187514088  MEMB      156             0.0000000000
     17802       156  SAPC      H13C           -0.9664393081      -30.9662204864      -18.7718110452  MEMB      156             0.0000000000
     17803       156  SAPC      C14            -3.1606976060      -33.2782776863      -19.9763209762  MEMB      156             0.0000000000
     17804       156  SAPC      H14A           -3.9453660927      -33.2265928954      -20.7395015244  MEMB      156             0.0000000000
     17805       156  SAPC      H14B           -2.5210396252      -34.1068836481      -20.2105611423  MEMB      156             0.0000000000
     17806       156  SAPC      H14C           -3.6906628936      -33.4445701886      -19.0462337609  MEMB      156             0.0000000000
     17807       156  SAPC      C15            -1.5166795844      -31.9338232433      -21.1504791050  MEMB      156             0.0000000000
     17808       156  SAPC      H15A           -2.0551035350      -32.2909441939      -22.0260724888  MEMB      156             0.0000000000
     17809       156  SAPC      H15B           -1.1709786637      -30.9268598487      -21.3635512251  MEMB      156             0.0000000000
     17810       156  SAPC      H15C           -0.6283038624      -32.5473466685      -21.0532715286  MEMB      156             0.0000000000
     17811       156  SAPC      C11            -4.3923305702      -30.8946491169      -21.3204749149  MEMB      156             0.0000000000
     17812       156  SAPC      H11A           -3.7701317405      -30.9903405408      -22.2386599898  MEMB      156             0.0000000000
     17813       156  SAPC      H11B           -4.9042525998      -29.9025595417      -21.4008140476  MEMB      156             0.0000000000
     17814       156  SAPC      P              -6.8391142454      -31.7393534370      -20.8575446952  MEMB      156             0.0000000000
     17815       156  SAPC      O13            -7.0003021785      -30.3856821888      -20.2779135805  MEMB      156             0.0000000000
     17816       156  SAPC      O14            -7.6280212854      -32.0132976092      -22.0775559109  MEMB      156             0.0000000000
     17817       156  SAPC      O12            -5.3097774499      -31.9928752320      -21.2423046648  MEMB      156             0.0000000000
     17818       156  SAPC      O11            -7.1248784861      -32.7947996819      -19.7002265057  MEMB      156             0.0000000000
     17819       156  SAPC      C1             -7.2381729627      -34.2042346925      -19.8534704098  MEMB      156             0.0000000000
     17820       156  SAPC      HA             -8.1816401028      -34.4546952686      -20.3897516210  MEMB      156             0.0000000000
     17821       156  SAPC      HB             -6.3856384952      -34.5913470753      -20.4603094966  MEMB      156             0.0000000000
     17822       156  SAPC      C2             -7.2463285074      -35.0279699677      -18.4982399022  MEMB      156             0.0000000000
     17823       156  SAPC      HS             -7.2595575964      -36.0940693993      -18.8105172715  MEMB      156             0.0000000000
     17824       156  SAPC      O21            -8.3631481611      -34.7372174666      -17.6212951652  MEMB      156             0.0000000000
     17825       156  SAPC      C21            -8.6948036464      -35.7195032252      -16.7759949806  MEMB      156             0.0000000000
     17826       156  SAPC      O22            -8.4012523585      -36.8954608901      -16.9081315191  MEMB      156             0.0000000000
     17827       156  SAPC      C22            -9.4742824128      -35.1543537235      -15.6014655830  MEMB      156             0.0000000000
     17828       156  SAPC      H2R           -10.4017425643      -34.6930672482      -15.9944771442  MEMB      156             0.0000000000
     17829       156  SAPC      H2S            -9.7524112018      -36.0020294342      -14.9421304161  MEMB      156             0.0000000000
     17830       156  SAPC      C3             -5.9346323573      -34.8599882417      -17.6583597673  MEMB      156             0.0000000000
     17831       156  SAPC      HX             -5.1173186760      -35.1224392043      -18.3657795559  MEMB      156             0.0000000000
     17832       156  SAPC      HY             -5.9885199806      -35.6411680981      -16.8821755716  MEMB      156             0.0000000000
     17833       156  SAPC      O31            -5.7204005151      -33.6038851125      -16.9621268242  MEMB      156             0.0000000000
     17834       156  SAPC      C31            -4.4437618025      -33.4247809411      -16.6298958714  MEMB      156             0.0000000000
     17835       156  SAPC      O32            -3.5006819133      -34.0407848052      -17.1175379683  MEMB      156             0.0000000000
     17836       156  SAPC      C32            -4.3088110462      -32.4126123941      -15.5023180690  MEMB      156             0.0000000000
     17837       156  SAPC      H2X            -5.0065971984      -32.7132024904      -14.6944840116  MEMB      156             0.0000000000
     17838       156  SAPC      H2Y            -4.6089354851      -31.4169365888      -15.8816852931  MEMB      156             0.0000000000
     17839       156  SAPC      C23            -8.6583900317      -34.0998824593      -14.8185390277  MEMB      156             0.0000000000
     17840       156  SAPC      H3R            -9.3352522283      -33.5804360768      -14.1011758539  MEMB      156             0.0000000000
     17841       156  SAPC      H3S            -8.2656566414      -33.3212630597      -15.5118974937  MEMB      156             0.0000000000
     17842       156  SAPC      C24            -7.5025975069      -34.6943847790      -14.0123017435  MEMB      156             0.0000000000
     17843       156  SAPC      H4R            -6.9650567909      -33.8586602904      -13.5042012595  MEMB      156             0.0000000000
     17844       156  SAPC      H4S            -6.7622448521      -35.1608055765      -14.6952555798  MEMB      156             0.0000000000
     17845       156  SAPC      C25            -8.0062867212      -35.6943767512      -13.0062934741  MEMB      156             0.0000000000
     17846       156  SAPC      H5R            -7.9929446675      -36.7501280286      -13.3121889349  MEMB      156             0.0000000000
     17847       156  SAPC      C26            -8.4213133333      -35.3799003161      -11.7784793522  MEMB      156             0.0000000000
     17848       156  SAPC      H6R            -8.6458157956      -36.1768496203      -11.0564883110  MEMB      156             0.0000000000
     17849       156  SAPC      C27            -8.4401846773      -33.9832621384      -11.2512190524  MEMB      156             0.0000000000
     17850       156  SAPC      H7R            -8.9032723883      -33.2890237284      -11.9833469564  MEMB      156             0.0000000000
     17851       156  SAPC      H7S            -7.3903977748      -33.6402430766      -11.1274570990  MEMB      156             0.0000000000
     17852       156  SAPC      C28            -9.2227068719      -33.9221565239       -9.9708741029  MEMB      156             0.0000000000
     17853       156  SAPC      H8R           -10.2624174574      -34.2893487664      -10.0184803358  MEMB      156             0.0000000000
     17854       156  SAPC      C29            -8.7483036278      -33.4174079731       -8.8264745539  MEMB      156             0.0000000000
     17855       156  SAPC      H9R            -9.3931681740      -33.4313146426       -7.9324945322  MEMB      156             0.0000000000
     17856       156  SAPC      C210           -7.3602982767      -32.8416493389       -8.6370751622  MEMB      156             0.0000000000
     17857       156  SAPC      H10R           -7.3169081942      -32.3433939142       -7.6429326709  MEMB      156             0.0000000000
     17858       156  SAPC      H10S           -7.1878944689      -32.0300208977       -9.3770923828  MEMB      156             0.0000000000
     17859       156  SAPC      C211           -6.2369399610      -33.8572962827       -8.7264165206  MEMB      156             0.0000000000
     17860       156  SAPC      H11R           -5.5084137614      -33.7231292008       -9.5438748312  MEMB      156             0.0000000000
     17861       156  SAPC      C212           -6.0374276697      -34.8288859258       -7.8201607351  MEMB      156             0.0000000000
     17862       156  SAPC      H12R           -5.1357914704      -35.4642989568       -7.8796202596  MEMB      156             0.0000000000
     17863       156  SAPC      C213           -6.9204928627      -34.9940823409       -6.6098749558  MEMB      156             0.0000000000
     17864       156  SAPC      H13R           -7.9083585577      -34.5131983698       -6.7274483455  MEMB      156             0.0000000000
     17865       156  SAPC      H13S           -6.4510381294      -34.4540502260       -5.7614664904  MEMB      156             0.0000000000
     17866       156  SAPC      C214           -7.2229870131      -36.4101506544       -6.2635354847  MEMB      156             0.0000000000
     17867       156  SAPC      H14R           -7.6321082269      -37.0236365309       -7.0808702558  MEMB      156             0.0000000000
     17868       156  SAPC      C215           -7.1118938759      -36.9163890549       -5.0306136971  MEMB      156             0.0000000000
     17869       156  SAPC      H15R           -7.4423374860      -37.9384634984       -4.8285144759  MEMB      156             0.0000000000
     17870       156  SAPC      C216           -6.6779798050      -36.2038996784       -3.7899595111  MEMB      156             0.0000000000
     17871       156  SAPC      H16R           -7.2136661268      -36.6445525957       -2.9245179339  MEMB      156             0.0000000000
     17872       156  SAPC      H16S           -6.9234630532      -35.1207270558       -3.8026006440  MEMB      156             0.0000000000
     17873       156  SAPC      C217           -5.1767297132      -36.4159506341       -3.6328426874  MEMB      156             0.0000000000
     17874       156  SAPC      H17R           -4.6197531315      -35.7556066997       -4.3380547071  MEMB      156             0.0000000000
     17875       156  SAPC      H17S           -4.9099334966      -37.4703051010       -3.8927375919  MEMB      156             0.0000000000
     17876       156  SAPC      C218           -4.6874700146      -36.1737359822       -2.2075088814  MEMB      156             0.0000000000
     17877       156  SAPC      H18R           -5.4219859537      -36.5460275169       -1.4624160806  MEMB      156             0.0000000000
     17878       156  SAPC      H18S           -4.5758301222      -35.0793898122       -2.0373706618  MEMB      156             0.0000000000
     17879       156  SAPC      C219           -3.3604991573      -36.9093618654       -2.0310549593  MEMB      156             0.0000000000
     17880       156  SAPC      H19R           -2.7150567593      -36.6301491694       -2.8950677011  MEMB      156             0.0000000000
     17881       156  SAPC      H19S           -3.5410163281      -38.0083347364       -2.0921988271  MEMB      156             0.0000000000
     17882       156  SAPC      C220           -2.6281643368      -36.5860494983       -0.7404727695  MEMB      156             0.0000000000
     17883       156  SAPC      H20R           -2.6497891321      -35.4896301998       -0.5639002391  MEMB      156             0.0000000000
     17884       156  SAPC      H20S           -1.5710669923      -36.9193390783       -0.8127503324  MEMB      156             0.0000000000
     17885       156  SAPC      H20T           -3.0981163213      -37.0935555004        0.1260130199  MEMB      156             0.0000000000
     17886       156  SAPC      C33            -2.8642434862      -32.3631125847      -14.9516833898  MEMB      156             0.0000000000
     17887       156  SAPC      H3X            -2.1557049338      -32.0640419818      -15.7547647818  MEMB      156             0.0000000000
     17888       156  SAPC      H3Y            -2.5567455470      -33.3734680790      -14.5955588168  MEMB      156             0.0000000000
     17889       156  SAPC      C34            -2.6852522365      -31.3832494034      -13.7855384245  MEMB      156             0.0000000000
     17890       156  SAPC      H4X            -3.1181329181      -30.3870447786      -14.0194822023  MEMB      156             0.0000000000
     17891       156  SAPC      H4Y            -1.5868287310      -31.2465581883      -13.6377145788  MEMB      156             0.0000000000
     17892       156  SAPC      C35            -3.2520795811      -31.9090066484      -12.4612784552  MEMB      156             0.0000000000
     17893       156  SAPC      H5X            -2.9454940230      -32.9765069347      -12.3576942997  MEMB      156             0.0000000000
     17894       156  SAPC      H5Y            -4.3630003279      -31.8856345874      -12.4548342157  MEMB      156             0.0000000000
     17895       156  SAPC      C36            -2.6869404579      -31.1332171143      -11.2643661576  MEMB      156             0.0000000000
     17896       156  SAPC      H6X            -3.1765013382      -30.1417385494      -11.1666620972  MEMB      156             0.0000000000
     17897       156  SAPC      H6Y            -1.6023185814      -30.9551780175      -11.4528974512  MEMB      156             0.0000000000
     17898       156  SAPC      C37            -2.8002008734      -31.9199039104       -9.9596234656  MEMB      156             0.0000000000
     17899       156  SAPC      H7X            -2.4129260248      -32.9437123773      -10.1617135715  MEMB      156             0.0000000000
     17900       156  SAPC      H7Y            -3.8659373341      -32.0202619758       -9.6592115014  MEMB      156             0.0000000000
     17901       156  SAPC      C38            -1.9792049569      -31.3043904927       -8.8167190908  MEMB      156             0.0000000000
     17902       156  SAPC      H8X            -2.5742730441      -30.5015298518       -8.3288892780  MEMB      156             0.0000000000
     17903       156  SAPC      H8Y            -1.0618055032      -30.8307713387       -9.2346266446  MEMB      156             0.0000000000
     17904       156  SAPC      C39            -1.5375484797      -32.3365546369       -7.7671739102  MEMB      156             0.0000000000
     17905       156  SAPC      H9X            -1.1085149822      -31.8098536967       -6.8907342873  MEMB      156             0.0000000000
     17906       156  SAPC      H9Y            -0.6968816481      -32.9169420271       -8.1970658324  MEMB      156             0.0000000000
     17907       156  SAPC      C310           -2.6600309154      -33.2937021598       -7.3197710439  MEMB      156             0.0000000000
     17908       156  SAPC      H10X           -2.2674609884      -34.0454544068       -6.6018281548  MEMB      156             0.0000000000
     17909       156  SAPC      H10Y           -3.0283789541      -33.8659997486       -8.2009458775  MEMB      156             0.0000000000
     17910       156  SAPC      C311           -3.8353605140      -32.5782419180       -6.6411045887  MEMB      156             0.0000000000
     17911       156  SAPC      H11X           -4.6293648970      -33.3163483063       -6.4195118685  MEMB      156             0.0000000000
     17912       156  SAPC      H11Y           -4.2573347300      -31.8182839338       -7.3326862696  MEMB      156             0.0000000000
     17913       156  SAPC      C312           -3.4678750802      -31.9588218427       -5.2928604809  MEMB      156             0.0000000000
     17914       156  SAPC      H12X           -2.4713453032      -31.4764900225       -5.3757032123  MEMB      156             0.0000000000
     17915       156  SAPC      H12Y           -3.3833724817      -32.7776060103       -4.5418236670  MEMB      156             0.0000000000
     17916       156  SAPC      C313           -4.4489224102      -30.8812303798       -4.8050734400  MEMB      156             0.0000000000
     17917       156  SAPC      H13X           -4.5509180006      -30.0891708043       -5.5788245930  MEMB      156             0.0000000000
     17918       156  SAPC      H13Y           -3.9711259388      -30.4212264615       -3.9122837577  MEMB      156             0.0000000000
     17919       156  SAPC      C314           -5.8455525739      -31.3882188716       -4.4088236699  MEMB      156             0.0000000000
     17920       156  SAPC      H14X           -5.7359826478      -32.3880536238       -3.9368646513  MEMB      156             0.0000000000
     17921       156  SAPC      H14Y           -6.4627982084      -31.5383397218       -5.3236429843  MEMB      156             0.0000000000
     17922       156  SAPC      C315           -6.5869418684      -30.4351844857       -3.4456864931  MEMB      156             0.0000000000
     17923       156  SAPC      H15X           -7.6203397932      -30.8184578686       -3.2866496036  MEMB      156             0.0000000000
     17924       156  SAPC      H15Y           -6.6808360783      -29.4339617301       -3.9243083478  MEMB      156             0.0000000000
     17925       156  SAPC      C316           -5.9297886729      -30.2565635110       -2.0608053049  MEMB      156             0.0000000000
     17926       156  SAPC      H16X           -6.6198358346      -29.6562881282       -1.4231291720  MEMB      156             0.0000000000
     17927       156  SAPC      H16Y           -4.9931599882      -29.6635237358       -2.1632404808  MEMB      156             0.0000000000
     17928       156  SAPC      C317           -5.6202992620      -31.5736992665       -1.3273550695  MEMB      156             0.0000000000
     17929       156  SAPC      H17X           -5.3912246487      -31.3387619582       -0.2621534883  MEMB      156             0.0000000000
     17930       156  SAPC      H17Y           -4.7069435618      -32.0362745421       -1.7660234845  MEMB      156             0.0000000000
     17931       156  SAPC      C318           -6.7603184860      -32.5937760630       -1.3609917450  MEMB      156             0.0000000000
     17932       156  SAPC      H18X           -6.8032520550      -33.1443849147       -2.3246461015  MEMB      156             0.0000000000
     17933       156  SAPC      H18Y           -7.7288932139      -32.0678778649       -1.2192136789  MEMB      156             0.0000000000
     17934       156  SAPC      H18Z           -6.6355640700      -33.3457261798       -0.5556351914  MEMB      156             0.0000000000
     17935       157  SAPC      N             -31.3581073610        7.3646726937      -20.8532429292  MEMB      157             0.0000000000
     17936       157  SAPC      C12           -31.1083383938        6.0397813405      -21.5674468031  MEMB      157             0.0000000000
     17937       157  SAPC      H12A          -30.1686696023        6.1304394871      -22.0905172531  MEMB      157             0.0000000000
     17938       157  SAPC      H12B          -31.8971529216        5.9032318126      -22.2994878901  MEMB      157             0.0000000000
     17939       157  SAPC      C13           -30.3930426393        7.5198094488      -19.7167791868  MEMB      157             0.0000000000
     17940       157  SAPC      H13A          -30.5135454086        6.6609090133      -19.0480507143  MEMB      157             0.0000000000
     17941       157  SAPC      H13B          -29.3606848721        7.5412332754      -20.0470050470  MEMB      157             0.0000000000
     17942       157  SAPC      H13C          -30.5652279833        8.4160562661      -19.1445569870  MEMB      157             0.0000000000
     17943       157  SAPC      C14           -31.2494028095        8.4891414264      -21.8308557563  MEMB      157             0.0000000000
     17944       157  SAPC      H14A          -31.9394127819        8.3719534137      -22.6619922614  MEMB      157             0.0000000000
     17945       157  SAPC      H14B          -31.3957418973        9.4528817682      -21.3770215550  MEMB      157             0.0000000000
     17946       157  SAPC      H14C          -30.2504049571        8.5274649496      -22.2812655647  MEMB      157             0.0000000000
     17947       157  SAPC      C15           -32.7244302757        7.2987651089      -20.2594390965  MEMB      157             0.0000000000
     17948       157  SAPC      H15A          -32.7717461261        6.4275642969      -19.5962978313  MEMB      157             0.0000000000
     17949       157  SAPC      H15B          -32.9634673053        8.1663687754      -19.6803292479  MEMB      157             0.0000000000
     17950       157  SAPC      H15C          -33.4845113251        7.1052428653      -21.0058696457  MEMB      157             0.0000000000
     17951       157  SAPC      C11           -31.0768182338        4.7336105936      -20.7254769670  MEMB      157             0.0000000000
     17952       157  SAPC      H11A          -30.1835298774        4.7623728483      -20.0580092360  MEMB      157             0.0000000000
     17953       157  SAPC      H11B          -30.9356799977        3.8731432195      -21.4228499863  MEMB      157             0.0000000000
     17954       157  SAPC      P             -32.3124663704        3.8525667360      -18.5822807012  MEMB      157             0.0000000000
     17955       157  SAPC      O13           -32.2374842250        2.3865937307      -18.7481716395  MEMB      157             0.0000000000
     17956       157  SAPC      O14           -31.3043664062        4.5144416084      -17.7312857193  MEMB      157             0.0000000000
     17957       157  SAPC      O12           -32.2959513473        4.5627042869      -20.0053315317  MEMB      157             0.0000000000
     17958       157  SAPC      O11           -33.7791895348        4.2330527425      -18.1316293917  MEMB      157             0.0000000000
     17959       157  SAPC      C1            -34.8116907896        3.9279460853      -19.0795663311  MEMB      157             0.0000000000
     17960       157  SAPC      HA            -34.6022307366        4.4211247060      -20.0584258824  MEMB      157             0.0000000000
     17961       157  SAPC      HB            -34.8727995081        2.8330669444      -19.2711048149  MEMB      157             0.0000000000
     17962       157  SAPC      C2            -36.2176529623        4.4309703332      -18.6418558083  MEMB      157             0.0000000000
     17963       157  SAPC      HS            -36.8009796656        4.5892372213      -19.5772450922  MEMB      157             0.0000000000
     17964       157  SAPC      O21           -36.1571394167        5.6471910759      -17.8829700279  MEMB      157             0.0000000000
     17965       157  SAPC      C21           -35.6481514167        6.6197777998      -18.6113114626  MEMB      157             0.0000000000
     17966       157  SAPC      O22           -35.6623374528        6.6854956774      -19.8322614764  MEMB      157             0.0000000000
     17967       157  SAPC      C22           -35.2033395448        7.7484842558      -17.7015641136  MEMB      157             0.0000000000
     17968       157  SAPC      H2R           -34.4225236850        8.3198252940      -18.2398294139  MEMB      157             0.0000000000
     17969       157  SAPC      H2S           -36.0646285707        8.4242857663      -17.5354531919  MEMB      157             0.0000000000
     17970       157  SAPC      C3            -37.0324813070        3.4108695974      -17.8154400166  MEMB      157             0.0000000000
     17971       157  SAPC      HX            -37.1887878646        2.5009571495      -18.4250895081  MEMB      157             0.0000000000
     17972       157  SAPC      HY            -38.0302923644        3.8659008428      -17.6935388962  MEMB      157             0.0000000000
     17973       157  SAPC      O31           -36.4696258299        3.1559865136      -16.5134941304  MEMB      157             0.0000000000
     17974       157  SAPC      C31           -35.5337077110        2.2127775416      -16.4989895471  MEMB      157             0.0000000000
     17975       157  SAPC      O32           -35.3571855768        1.3869774286      -17.3734363336  MEMB      157             0.0000000000
     17976       157  SAPC      C32           -34.7708894092        2.2495560312      -15.1947355280  MEMB      157             0.0000000000
     17977       157  SAPC      H2X           -35.3500134310        1.6561691241      -14.4659965136  MEMB      157             0.0000000000
     17978       157  SAPC      H2Y           -34.7117549545        3.3061205648      -14.8668479206  MEMB      157             0.0000000000
     17979       157  SAPC      C23           -34.6107235568        7.2624697649      -16.3648139466  MEMB      157             0.0000000000
     17980       157  SAPC      H3R           -33.9280672950        6.3970762379      -16.5598612684  MEMB      157             0.0000000000
     17981       157  SAPC      H3S           -35.4167216906        6.8997681472      -15.6855040780  MEMB      157             0.0000000000
     17982       157  SAPC      C24           -33.8181704407        8.3970311624      -15.7021863641  MEMB      157             0.0000000000
     17983       157  SAPC      H4R           -34.5388464924        9.1708885775      -15.3532772855  MEMB      157             0.0000000000
     17984       157  SAPC      H4S           -33.1713291812        8.8832807247      -16.4645485473  MEMB      157             0.0000000000
     17985       157  SAPC      C25           -32.9585054568        7.8682822530      -14.5868973798  MEMB      157             0.0000000000
     17986       157  SAPC      H5R           -31.9444204173        7.5490682257      -14.8770477031  MEMB      157             0.0000000000
     17987       157  SAPC      C26           -33.3415262387        7.7170843834      -13.3104341169  MEMB      157             0.0000000000
     17988       157  SAPC      H6R           -32.6258515409        7.2643267133      -12.6054466213  MEMB      157             0.0000000000
     17989       157  SAPC      C27           -34.7042010302        8.0474368408      -12.7512224037  MEMB      157             0.0000000000
     17990       157  SAPC      H7R           -35.3738151891        7.1746183252      -12.9308017583  MEMB      157             0.0000000000
     17991       157  SAPC      H7S           -35.1881421506        8.8944191178      -13.2853267839  MEMB      157             0.0000000000
     17992       157  SAPC      C28           -34.6261910513        8.3486552241      -11.2749647648  MEMB      157             0.0000000000
     17993       157  SAPC      H8R           -34.5026619495        9.4114280409      -11.0120106966  MEMB      157             0.0000000000
     17994       157  SAPC      C29           -34.7443057730        7.4321972961      -10.2944357434  MEMB      157             0.0000000000
     17995       157  SAPC      H9R           -34.6933740545        7.7536655186       -9.2413575250  MEMB      157             0.0000000000
     17996       157  SAPC      C210          -34.9721378164        5.9569958079      -10.5160157384  MEMB      157             0.0000000000
     17997       157  SAPC      H10R          -34.3605456643        5.3797195344       -9.7888327879  MEMB      157             0.0000000000
     17998       157  SAPC      H10S          -34.6011260464        5.6369103702      -11.5160526305  MEMB      157             0.0000000000
     17999       157  SAPC      C211          -36.4282145766        5.5852816837      -10.4166795624  MEMB      157             0.0000000000
     18000       157  SAPC      H11R          -36.9942430275        5.6492976167      -11.3595892456  MEMB      157             0.0000000000
     18001       157  SAPC      C212          -37.0528732816        5.1267880460       -9.3187492702  MEMB      157             0.0000000000
     18002       157  SAPC      H12R          -38.0785110428        4.7591812684       -9.4133325188  MEMB      157             0.0000000000
     18003       157  SAPC      C213          -36.4464676194        4.8848992507       -7.9673122393  MEMB      157             0.0000000000
     18004       157  SAPC      H13R          -37.1899938146        5.1235279300       -7.1727536464  MEMB      157             0.0000000000
     18005       157  SAPC      H13S          -35.5810316888        5.5643496006       -7.7867270319  MEMB      157             0.0000000000
     18006       157  SAPC      C214          -36.0277444812        3.4372413716       -7.8734584788  MEMB      157             0.0000000000
     18007       157  SAPC      H14R          -36.2287020775        2.7898051874       -8.7362321333  MEMB      157             0.0000000000
     18008       157  SAPC      C215          -35.3758267215        2.9009765352       -6.8420025502  MEMB      157             0.0000000000
     18009       157  SAPC      H15R          -35.1334720602        1.8272113483       -6.8366287667  MEMB      157             0.0000000000
     18010       157  SAPC      C216          -34.9678197320        3.6642911196       -5.6241659413  MEMB      157             0.0000000000
     18011       157  SAPC      H16R          -35.2115176805        4.7492974196       -5.6824120020  MEMB      157             0.0000000000
     18012       157  SAPC      H16S          -33.8850331527        3.5792103069       -5.4505056399  MEMB      157             0.0000000000
     18013       157  SAPC      C217          -35.6485454370        3.0755556532       -4.4123120790  MEMB      157             0.0000000000
     18014       157  SAPC      H17R          -36.5026999788        2.4446690634       -4.6847122238  MEMB      157             0.0000000000
     18015       157  SAPC      H17S          -36.0747696617        3.9326251904       -3.8728089405  MEMB      157             0.0000000000
     18016       157  SAPC      C218          -34.7115434316        2.2160245033       -3.5761644038  MEMB      157             0.0000000000
     18017       157  SAPC      H18R          -33.8460855144        2.8292904843       -3.2305285601  MEMB      157             0.0000000000
     18018       157  SAPC      H18S          -34.3268154108        1.3794695513       -4.2010099369  MEMB      157             0.0000000000
     18019       157  SAPC      C219          -35.4355339626        1.6469909121       -2.3709604462  MEMB      157             0.0000000000
     18020       157  SAPC      H19R          -34.6791245313        1.1855214104       -1.7201880556  MEMB      157             0.0000000000
     18021       157  SAPC      H19S          -36.1268164079        0.8283496971       -2.6501759471  MEMB      157             0.0000000000
     18022       157  SAPC      C220          -36.1796679081        2.7217767789       -1.5964067898  MEMB      157             0.0000000000
     18023       157  SAPC      H20R          -36.6902738942        2.2627289929       -0.7283111993  MEMB      157             0.0000000000
     18024       157  SAPC      H20S          -36.9490477511        3.2531882261       -2.1836969244  MEMB      157             0.0000000000
     18025       157  SAPC      H20T          -35.4419766922        3.4660139702       -1.2249984875  MEMB      157             0.0000000000
     18026       157  SAPC      C33           -33.3670499643        1.6091697923      -15.2587155196  MEMB      157             0.0000000000
     18027       157  SAPC      H3X           -32.7379721974        2.1207352952      -16.0217799891  MEMB      157             0.0000000000
     18028       157  SAPC      H3Y           -33.4640674998        0.5415585520      -15.5611786019  MEMB      157             0.0000000000
     18029       157  SAPC      C34           -32.6890795693        1.6971804040      -13.8846639226  MEMB      157             0.0000000000
     18030       157  SAPC      H4X           -31.7945501032        1.0382220780      -13.8721463031  MEMB      157             0.0000000000
     18031       157  SAPC      H4Y           -33.4043838400        1.3241609142      -13.1196080745  MEMB      157             0.0000000000
     18032       157  SAPC      C35           -32.2583733380        3.1302761623      -13.5405605558  MEMB      157             0.0000000000
     18033       157  SAPC      H5X           -33.1362739894        3.8135916927      -13.5610123836  MEMB      157             0.0000000000
     18034       157  SAPC      H5Y           -31.5646147324        3.4794157169      -14.3415029454  MEMB      157             0.0000000000
     18035       157  SAPC      C36           -31.5599938461        3.2833820358      -12.1806082796  MEMB      157             0.0000000000
     18036       157  SAPC      H6X           -31.1894734209        4.3336603778      -12.1140116968  MEMB      157             0.0000000000
     18037       157  SAPC      H6Y           -30.6733336709        2.6140703471      -12.1374466870  MEMB      157             0.0000000000
     18038       157  SAPC      C37           -32.4487798931        3.0215755637      -10.9553601485  MEMB      157             0.0000000000
     18039       157  SAPC      H7X           -32.7250854464        1.9446582408      -10.9143512441  MEMB      157             0.0000000000
     18040       157  SAPC      H7Y           -33.3907326088        3.6072431051      -11.0441305519  MEMB      157             0.0000000000
     18041       157  SAPC      C38           -31.7300580103        3.4151556167       -9.6542495115  MEMB      157             0.0000000000
     18042       157  SAPC      H8X           -31.4633569224        4.4964226652       -9.6931282650  MEMB      157             0.0000000000
     18043       157  SAPC      H8Y           -30.7854147207        2.8304149880       -9.5823679167  MEMB      157             0.0000000000
     18044       157  SAPC      C39           -32.5673371457        3.1543325230       -8.3984767703  MEMB      157             0.0000000000
     18045       157  SAPC      H9X           -33.0788765909        2.1712759707       -8.5156534822  MEMB      157             0.0000000000
     18046       157  SAPC      H9Y           -33.3494461487        3.9413826098       -8.3177189958  MEMB      157             0.0000000000
     18047       157  SAPC      C310          -31.7400829351        3.1112820075       -7.1042419668  MEMB      157             0.0000000000
     18048       157  SAPC      H10X          -30.9167906759        2.3786213020       -7.2400523603  MEMB      157             0.0000000000
     18049       157  SAPC      H10Y          -32.3592549308        2.7124563494       -6.2757382543  MEMB      157             0.0000000000
     18050       157  SAPC      C311          -31.1519774206        4.4686258414       -6.6888552057  MEMB      157             0.0000000000
     18051       157  SAPC      H11X          -31.3391736102        5.2289937939       -7.4776334052  MEMB      157             0.0000000000
     18052       157  SAPC      H11Y          -30.0494593866        4.3523220675       -6.5975093174  MEMB      157             0.0000000000
     18053       157  SAPC      C312          -31.6798618138        5.0021967253       -5.3495805362  MEMB      157             0.0000000000
     18054       157  SAPC      H12X          -31.5335115890        4.2303519297       -4.5602053909  MEMB      157             0.0000000000
     18055       157  SAPC      H12Y          -32.7670783887        5.2259375082       -5.4216673629  MEMB      157             0.0000000000
     18056       157  SAPC      C313          -31.0019680557        6.3122210082       -4.9612010080  MEMB      157             0.0000000000
     18057       157  SAPC      H13X          -31.5862566326        7.1439614744       -5.4155082138  MEMB      157             0.0000000000
     18058       157  SAPC      H13Y          -29.9780466543        6.3510833651       -5.3959005668  MEMB      157             0.0000000000
     18059       157  SAPC      C314          -30.8729761008        6.5513716740       -3.4574262935  MEMB      157             0.0000000000
     18060       157  SAPC      H14X          -30.6906378991        7.6368666220       -3.3415941612  MEMB      157             0.0000000000
     18061       157  SAPC      H14Y          -29.9841289425        6.0363003458       -3.0440425353  MEMB      157             0.0000000000
     18062       157  SAPC      C315          -32.0677186617        6.1837186890       -2.5800416654  MEMB      157             0.0000000000
     18063       157  SAPC      H15X          -31.9440081153        5.1448021571       -2.1963291676  MEMB      157             0.0000000000
     18064       157  SAPC      H15Y          -33.0302160735        6.2217086951       -3.1373498853  MEMB      157             0.0000000000
     18065       157  SAPC      C316          -32.1150780176        7.1692329039       -1.4162225977  MEMB      157             0.0000000000
     18066       157  SAPC      H16X          -32.5275927811        8.1321802147       -1.8000980018  MEMB      157             0.0000000000
     18067       157  SAPC      H16Y          -31.0891282894        7.3999725830       -1.0496026069  MEMB      157             0.0000000000
     18068       157  SAPC      C317          -32.9625650906        6.6804110997       -0.2558346493  MEMB      157             0.0000000000
     18069       157  SAPC      H17X          -32.3003342739        6.4270257383        0.6043275700  MEMB      157             0.0000000000
     18070       157  SAPC      H17Y          -33.4986925648        5.7474399082       -0.5354443131  MEMB      157             0.0000000000
     18071       157  SAPC      C318          -33.9532066794        7.7582205454        0.1545360477  MEMB      157             0.0000000000
     18072       157  SAPC      H18X          -34.2730661664        7.5800012819        1.1972165627  MEMB      157             0.0000000000
     18073       157  SAPC      H18Y          -34.8697219653        7.8046988466       -0.4540601213  MEMB      157             0.0000000000
     18074       157  SAPC      H18Z          -33.4755416521        8.7544060116        0.0659564357  MEMB      157             0.0000000000
     18075       158  OSM       N             -33.0492425143       -6.5949034401      -21.7045717926  MEMB      158             0.0000000000
     18076       158  OSM       C15           -32.3963717597       -5.9200090294      -22.8562839589  MEMB      158             0.0000000000
     18077       158  OSM       H15A          -32.9097688018       -6.1116461675      -23.7806458048  MEMB      158             0.0000000000
     18078       158  OSM       H15B          -31.3709545050       -6.2808462869      -22.9037057175  MEMB      158             0.0000000000
     18079       158  OSM       H15C          -32.3535775558       -4.8482704095      -22.7104676987  MEMB      158             0.0000000000
     18080       158  OSM       C14           -32.2396714885       -6.2561124835      -20.4959549674  MEMB      158             0.0000000000
     18081       158  OSM       H14A          -32.6163731937       -6.6809036605      -19.5642367222  MEMB      158             0.0000000000
     18082       158  OSM       H14B          -32.1557580934       -5.1917841098      -20.3463466564  MEMB      158             0.0000000000
     18083       158  OSM       H14C          -31.2480458548       -6.6926433192      -20.6092443319  MEMB      158             0.0000000000
     18084       158  OSM       C13           -34.4263518397       -6.1060354834      -21.4830501515  MEMB      158             0.0000000000
     18085       158  OSM       H13A          -35.0340971283       -6.1792554102      -22.3738651262  MEMB      158             0.0000000000
     18086       158  OSM       H13B          -34.4195398527       -5.0660422191      -21.1692584257  MEMB      158             0.0000000000
     18087       158  OSM       H13C          -34.9370153938       -6.6144745336      -20.6634934413  MEMB      158             0.0000000000
     18088       158  OSM       C12           -33.1366801572       -8.1019199077      -21.8609361234  MEMB      158             0.0000000000
     18089       158  OSM       H12A          -33.8704981134       -8.2974015940      -22.6301529294  MEMB      158             0.0000000000
     18090       158  OSM       H12B          -33.5481260838       -8.4548194735      -20.9180625270  MEMB      158             0.0000000000
     18091       158  OSM       C11           -31.8621302147       -8.9306319216      -22.1486681469  MEMB      158             0.0000000000
     18092       158  OSM       H11A          -31.4119493679       -8.6141144070      -23.1164053795  MEMB      158             0.0000000000
     18093       158  OSM       H11B          -32.1746132825       -9.9988981425      -22.2671770738  MEMB      158             0.0000000000
     18094       158  OSM       P             -30.2034437740       -9.8896958950      -20.3070160144  MEMB      158             0.0000000000
     18095       158  OSM       O13           -30.8969521714      -10.1992061586      -19.0427677497  MEMB      158             0.0000000000
     18096       158  OSM       O14           -29.9068158013      -11.0355496866      -21.2063290544  MEMB      158             0.0000000000
     18097       158  OSM       O11           -28.8467087659       -9.1500417232      -19.9574076918  MEMB      158             0.0000000000
     18098       158  OSM       O12           -30.9174430856       -8.7476156400      -21.1065712880  MEMB      158             0.0000000000
     18099       158  OSM       C1S           -28.9633575873       -7.7896443930      -19.4672684109  MEMB      158             0.0000000000
     18100       158  OSM       H1S           -29.7631078680       -7.1978679743      -19.9552410415  MEMB      158             0.0000000000
     18101       158  OSM       H1T           -28.0311724051       -7.2445141934      -19.7157363090  MEMB      158             0.0000000000
     18102       158  OSM       NF            -29.3360303331       -6.3045444625      -17.5211176193  MEMB      158             0.0000000000
     18103       158  OSM       HNF           -28.5281224695       -5.7595879900      -17.3391965862  MEMB      158             0.0000000000
     18104       158  OSM       C2S           -29.1426895233       -7.6855320826      -17.9253292779  MEMB      158             0.0000000000
     18105       158  OSM       H2S           -30.0273256974       -8.2987616897      -17.6249996507  MEMB      158             0.0000000000
     18106       158  OSM       C3S           -27.8849936691       -8.2381189422      -17.2583097529  MEMB      158             0.0000000000
     18107       158  OSM       H3S           -27.0278811438       -7.5957230675      -17.5549893397  MEMB      158             0.0000000000
     18108       158  OSM       O3            -27.5250003699       -9.5721606469      -17.5941011764  MEMB      158             0.0000000000
     18109       158  OSM       HO3           -28.2672994817       -9.8799319615      -18.1298150316  MEMB      158             0.0000000000
     18110       158  OSM       C4S           -28.0490161971       -8.1161666955      -15.7644518370  MEMB      158             0.0000000000
     18111       158  OSM       H4S           -27.3533971458       -7.4095293788      -15.3074574444  MEMB      158             0.0000000000
     18112       158  OSM       C5S           -28.9271278888       -8.7608987866      -14.9809083750  MEMB      158             0.0000000000
     18113       158  OSM       H5S           -29.6535150397       -9.4517570147      -15.4523434489  MEMB      158             0.0000000000
     18114       158  OSM       C6S           -29.0652626437       -8.6507020759      -13.4869965152  MEMB      158             0.0000000000
     18115       158  OSM       H6S           -28.7692960718       -9.6577336416      -13.1308104792  MEMB      158             0.0000000000
     18116       158  OSM       H6T           -30.1384858111       -8.5518151517      -13.2291831922  MEMB      158             0.0000000000
     18117       158  OSM       C7S           -28.2589580054       -7.6979786927      -12.5631698019  MEMB      158             0.0000000000
     18118       158  OSM       H7S           -28.7417804601       -6.7096857155      -12.4674196805  MEMB      158             0.0000000000
     18119       158  OSM       H7T           -27.2434385022       -7.4796973946      -12.9395966310  MEMB      158             0.0000000000
     18120       158  OSM       C8S           -28.1980236989       -8.3014646832      -11.1461705190  MEMB      158             0.0000000000
     18121       158  OSM       H8S           -27.5191253250       -9.1815630408      -11.1496837369  MEMB      158             0.0000000000
     18122       158  OSM       H8T           -29.2153608060       -8.6750674339      -10.8979112590  MEMB      158             0.0000000000
     18123       158  OSM       C9S           -27.8003807776       -7.3216237088      -10.0378944733  MEMB      158             0.0000000000
     18124       158  OSM       H9S           -28.4555325506       -6.4208646703      -10.0980883384  MEMB      158             0.0000000000
     18125       158  OSM       H9T           -26.7565726957       -6.9828247187      -10.2201794012  MEMB      158             0.0000000000
     18126       158  OSM       C10S          -27.9207457383       -7.9206906390       -8.6185915104  MEMB      158             0.0000000000
     18127       158  OSM       H10S          -27.2775336543       -7.3043104103       -7.9680630044  MEMB      158             0.0000000000
     18128       158  OSM       H10T          -27.5156578537       -8.9463398368       -8.5709430073  MEMB      158             0.0000000000
     18129       158  OSM       C11S          -29.3571311314       -7.8668055292       -8.0778303226  MEMB      158             0.0000000000
     18130       158  OSM       H11S          -30.0383583972       -8.3547976846       -8.8077076123  MEMB      158             0.0000000000
     18131       158  OSM       H11T          -29.6216217854       -6.7883833750       -8.0547288598  MEMB      158             0.0000000000
     18132       158  OSM       C12S          -29.6291319453       -8.4869799592       -6.6893117510  MEMB      158             0.0000000000
     18133       158  OSM       H12S          -29.7228479587       -9.5905337866       -6.7851521060  MEMB      158             0.0000000000
     18134       158  OSM       H12T          -30.6182836811       -8.1033514106       -6.3448527849  MEMB      158             0.0000000000
     18135       158  OSM       C13S          -28.5841121534       -8.1650546585       -5.6127942691  MEMB      158             0.0000000000
     18136       158  OSM       H13S          -28.3032497949       -7.0916186966       -5.7059904491  MEMB      158             0.0000000000
     18137       158  OSM       H13T          -27.6707232972       -8.7772404941       -5.7812635671  MEMB      158             0.0000000000
     18138       158  OSM       C14S          -29.0945050796       -8.3763661026       -4.1785676038  MEMB      158             0.0000000000
     18139       158  OSM       H14S          -29.3681696270       -9.4372861933       -3.9923544371  MEMB      158             0.0000000000
     18140       158  OSM       H14T          -30.0190377827       -7.7746794946       -4.0508326926  MEMB      158             0.0000000000
     18141       158  OSM       C15S          -28.0771535524       -7.8996364328       -3.1347099451  MEMB      158             0.0000000000
     18142       158  OSM       H15S          -27.4841981938       -7.0652575407       -3.5542955622  MEMB      158             0.0000000000
     18143       158  OSM       H15T          -27.3477325353       -8.7077045783       -2.9268904129  MEMB      158             0.0000000000
     18144       158  OSM       C16S          -28.7180184874       -7.4492392563       -1.8174108057  MEMB      158             0.0000000000
     18145       158  OSM       H16S          -29.8278093225       -7.4916067208       -1.8997610512  MEMB      158             0.0000000000
     18146       158  OSM       H16T          -28.4454344044       -6.3938026334       -1.5943423614  MEMB      158             0.0000000000
     18147       158  OSM       C17S          -28.2624058436       -8.3640812774       -0.6831301156  MEMB      158             0.0000000000
     18148       158  OSM       H17S          -27.1639077659       -8.2503994646       -0.5365762628  MEMB      158             0.0000000000
     18149       158  OSM       H17T          -28.4390534399       -9.4053589379       -1.0334155658  MEMB      158             0.0000000000
     18150       158  OSM       C18S          -28.9890114147       -8.1349898884        0.6393134185  MEMB      158             0.0000000000
     18151       158  OSM       H18S          -28.8477731802       -7.0950459879        0.9799169207  MEMB      158             0.0000000000
     18152       158  OSM       H18T          -28.5969395318       -8.8227271866        1.4207641716  MEMB      158             0.0000000000
     18153       158  OSM       H18U          -30.0800196117       -8.3159758714        0.5227165678  MEMB      158             0.0000000000
     18154       158  OSM       C1F           -30.5540912780       -5.8504583349      -17.2901931760  MEMB      158             0.0000000000
     18155       158  OSM       OF            -31.5200306211       -6.3794631649      -17.7889976464  MEMB      158             0.0000000000
     18156       158  OSM       C2F           -30.6703674734       -4.6946386215      -16.3572600813  MEMB      158             0.0000000000
     18157       158  OSM       H2F           -30.9863287530       -3.8218151248      -16.9725126541  MEMB      158             0.0000000000
     18158       158  OSM       H2G           -29.6805153795       -4.4923211315      -15.8968388477  MEMB      158             0.0000000000
     18159       158  OSM       C3F           -31.7374856415       -4.8649542192      -15.2549535433  MEMB      158             0.0000000000
     18160       158  OSM       H3F           -32.7028806575       -4.6892250300      -15.7773605426  MEMB      158             0.0000000000
     18161       158  OSM       H3G           -31.6095678784       -4.0448769162      -14.5121117509  MEMB      158             0.0000000000
     18162       158  OSM       C4F           -31.8506361884       -6.2209681729      -14.5209521470  MEMB      158             0.0000000000
     18163       158  OSM       H4F           -31.2071877147       -7.0081288282      -14.9716113115  MEMB      158             0.0000000000
     18164       158  OSM       H4G           -32.8991704225       -6.5722566908      -14.6764084167  MEMB      158             0.0000000000
     18165       158  OSM       C5F           -31.6318249649       -6.1555640258      -12.9928551001  MEMB      158             0.0000000000
     18166       158  OSM       H5F           -31.7971098020       -5.1266051094      -12.6006644041  MEMB      158             0.0000000000
     18167       158  OSM       H5G           -30.5812341765       -6.3837192612      -12.7812170003  MEMB      158             0.0000000000
     18168       158  OSM       C6F           -32.5506734519       -7.1214789240      -12.2122028965  MEMB      158             0.0000000000
     18169       158  OSM       H6F           -33.0267309056       -7.8326105536      -12.9180017457  MEMB      158             0.0000000000
     18170       158  OSM       H6G           -33.3495912319       -6.4767211372      -11.7863992596  MEMB      158             0.0000000000
     18171       158  OSM       C7F           -31.9023487082       -7.9621791687      -11.0874437248  MEMB      158             0.0000000000
     18172       158  OSM       H7F           -31.2030178858       -7.3198346738      -10.5116296072  MEMB      158             0.0000000000
     18173       158  OSM       H7G           -31.2882108882       -8.7784760472      -11.5261769925  MEMB      158             0.0000000000
     18174       158  OSM       C8F           -32.9203880297       -8.6353712217      -10.1293569728  MEMB      158             0.0000000000
     18175       158  OSM       H8F           -32.3733978033       -9.0172349431       -9.2360907045  MEMB      158             0.0000000000
     18176       158  OSM       H8G           -33.3261683129       -9.5283578135      -10.6460609294  MEMB      158             0.0000000000
     18177       158  OSM       C9F           -34.0738889531       -7.7621827447       -9.7024186515  MEMB      158             0.0000000000
     18178       158  OSM       H9F           -35.0636089052       -8.0450857394      -10.0908709093  MEMB      158             0.0000000000
     18179       158  OSM       C10F          -33.9708695461       -6.6619885871       -8.9460049982  MEMB      158             0.0000000000
     18180       158  OSM       H10F          -34.8727018001       -6.0802038283       -8.6959545095  MEMB      158             0.0000000000
     18181       158  OSM       C11F          -32.6887671635       -6.1186830328       -8.3929742591  MEMB      158             0.0000000000
     18182       158  OSM       H11F          -32.4672055565       -5.1272526547       -8.8393094987  MEMB      158             0.0000000000
     18183       158  OSM       H11G          -31.8112832170       -6.7566437362       -8.6252559587  MEMB      158             0.0000000000
     18184       158  OSM       C12F          -32.7603007262       -6.0073504359       -6.8724155485  MEMB      158             0.0000000000
     18185       158  OSM       H12F          -32.7642346932       -7.0289763652       -6.4284478909  MEMB      158             0.0000000000
     18186       158  OSM       H12G          -33.6992329647       -5.5081699271       -6.5453470724  MEMB      158             0.0000000000
     18187       158  OSM       C13F          -31.5584761396       -5.2164184777       -6.3652612358  MEMB      158             0.0000000000
     18188       158  OSM       H13F          -31.6511487896       -4.1507813259       -6.6659700326  MEMB      158             0.0000000000
     18189       158  OSM       H13G          -30.6366325827       -5.5968987425       -6.8429828580  MEMB      158             0.0000000000
     18190       158  OSM       C14F          -31.3991185267       -5.2965346519       -4.8571331275  MEMB      158             0.0000000000
     18191       158  OSM       H14F          -30.4013133557       -4.8739500535       -4.5992611346  MEMB      158             0.0000000000
     18192       158  OSM       H14G          -31.4220639118       -6.3549836186       -4.5258067222  MEMB      158             0.0000000000
     18193       158  OSM       C15F          -32.4970749646       -4.4939091731       -4.1674717385  MEMB      158             0.0000000000
     18194       158  OSM       H15F          -33.4393998938       -5.0814341469       -4.1222101917  MEMB      158             0.0000000000
     18195       158  OSM       H15G          -32.7321217627       -3.6244001265       -4.8233706885  MEMB      158             0.0000000000
     18196       158  OSM       C16F          -32.0482329419       -3.9455295379       -2.8090398958  MEMB      158             0.0000000000
     18197       158  OSM       H16F          -32.6538186704       -3.0483002978       -2.5692107000  MEMB      158             0.0000000000
     18198       158  OSM       H16G          -30.9989191317       -3.5824180910       -2.9058487117  MEMB      158             0.0000000000
     18199       158  OSM       C17F          -32.1405694595       -4.9376188323       -1.6383231511  MEMB      158             0.0000000000
     18200       158  OSM       H17F          -32.4686326486       -4.3670026677       -0.7392919403  MEMB      158             0.0000000000
     18201       158  OSM       H17G          -31.1163407558       -5.3183434411       -1.4226144107  MEMB      158             0.0000000000
     18202       158  OSM       C18F          -33.0846219022       -6.1269598029       -1.8556443452  MEMB      158             0.0000000000
     18203       158  OSM       H18F          -34.1155056727       -5.7728441213       -2.0806192643  MEMB      158             0.0000000000
     18204       158  OSM       H18G          -33.1190086635       -6.7889167175       -0.9662760796  MEMB      158             0.0000000000
     18205       158  OSM       H18H          -32.7330694873       -6.7418928823       -2.7130292578  MEMB      158             0.0000000000
     18206       159  SAPE      N              31.1219234059      -12.8100001342      -20.2503244926  MEMB      159             0.0000000000
     18207       159  SAPE      HN1            31.6604154275      -12.2257219470      -20.9203119006  MEMB      159             0.0000000000
     18208       159  SAPE      HN2            30.0858750858      -12.6483949321      -20.3598679722  MEMB      159             0.0000000000
     18209       159  SAPE      HN3            31.3378852182      -12.6202874769      -19.2418214693  MEMB      159             0.0000000000
     18210       159  SAPE      C12            31.2317173082      -14.2889085437      -20.5126324183  MEMB      159             0.0000000000
     18211       159  SAPE      H12A           31.0353660501      -14.8124298857      -19.5514321101  MEMB      159             0.0000000000
     18212       159  SAPE      H12B           32.2588216028      -14.5361677755      -20.8384005165  MEMB      159             0.0000000000
     18213       159  SAPE      C11            30.1542534849      -14.6779161304      -21.5386788368  MEMB      159             0.0000000000
     18214       159  SAPE      H11A           30.0550839671      -15.7883461036      -21.5971208404  MEMB      159             0.0000000000
     18215       159  SAPE      H11B           30.4640260438      -14.3272019944      -22.5412506828  MEMB      159             0.0000000000
     18216       159  SAPE      P              28.1098498311      -14.3119826424      -19.9556193393  MEMB      159             0.0000000000
     18217       159  SAPE      O13            26.6631466331      -14.2765821012      -20.2770301432  MEMB      159             0.0000000000
     18218       159  SAPE      O14            28.6902234491      -15.4876446881      -19.2886374670  MEMB      159             0.0000000000
     18219       159  SAPE      O12            28.9033165109      -14.0526094633      -21.2823502778  MEMB      159             0.0000000000
     18220       159  SAPE      O11            28.6000960838      -12.9912050196      -19.2214108371  MEMB      159             0.0000000000
     18221       159  SAPE      C1             27.9274041761      -12.3241583949      -18.1477564791  MEMB      159             0.0000000000
     18222       159  SAPE      HA             27.4837200168      -11.3896773023      -18.5443525611  MEMB      159             0.0000000000
     18223       159  SAPE      HB             27.0918289753      -12.9321090772      -17.7254240532  MEMB      159             0.0000000000
     18224       159  SAPE      C2             28.9632333630      -12.0145793992      -17.0225024307  MEMB      159             0.0000000000
     18225       159  SAPE      HS             29.8401505670      -11.5424131581      -17.5342733489  MEMB      159             0.0000000000
     18226       159  SAPE      O21            29.2302211938      -13.2581963224      -16.3910566070  MEMB      159             0.0000000000
     18227       159  SAPE      C21            30.4816382960      -13.5566099158      -16.4836454344  MEMB      159             0.0000000000
     18228       159  SAPE      O22            31.2113499300      -13.4103338647      -17.4560335538  MEMB      159             0.0000000000
     18229       159  SAPE      C22            30.9298128148      -13.7669675078      -15.0535794295  MEMB      159             0.0000000000
     18230       159  SAPE      H2R            30.7705952369      -12.8273687268      -14.5120457929  MEMB      159             0.0000000000
     18231       159  SAPE      H2S            30.2827605587      -14.5295105702      -14.5844135208  MEMB      159             0.0000000000
     18232       159  SAPE      C3             28.5905445367      -11.0326573472      -15.8593095061  MEMB      159             0.0000000000
     18233       159  SAPE      HX             27.5469776395      -11.2940474920      -15.5805498257  MEMB      159             0.0000000000
     18234       159  SAPE      HY             28.6150688671      -10.0272126881      -16.3365773348  MEMB      159             0.0000000000
     18235       159  SAPE      O31            29.4858857117      -10.9671570666      -14.6937377476  MEMB      159             0.0000000000
     18236       159  SAPE      C31            29.0407028818      -11.4467226027      -13.5000067890  MEMB      159             0.0000000000
     18237       159  SAPE      O32            28.0199139110      -12.0862509719      -13.3545655375  MEMB      159             0.0000000000
     18238       159  SAPE      C32            30.0485941631      -11.1106615355      -12.3369495739  MEMB      159             0.0000000000
     18239       159  SAPE      H2X            30.6428416577      -10.2364204912      -12.6567643959  MEMB      159             0.0000000000
     18240       159  SAPE      H2Y            30.6941732111      -12.0119604561      -12.2451267106  MEMB      159             0.0000000000
     18241       159  SAPE      C23            32.4262642512      -14.0403106439      -14.9468220107  MEMB      159             0.0000000000
     18242       159  SAPE      H3R            32.7126435205      -14.0187535039      -13.8700714812  MEMB      159             0.0000000000
     18243       159  SAPE      H3S            33.0051325436      -13.2323534776      -15.4534320834  MEMB      159             0.0000000000
     18244       159  SAPE      C24            32.7990439080      -15.3877227564      -15.5577165654  MEMB      159             0.0000000000
     18245       159  SAPE      H4R            33.7145837329      -15.6778227285      -15.0251698700  MEMB      159             0.0000000000
     18246       159  SAPE      H4S            33.0775802678      -15.1948941186      -16.6218475296  MEMB      159             0.0000000000
     18247       159  SAPE      C25            31.7751454477      -16.4986287305      -15.5052281309  MEMB      159             0.0000000000
     18248       159  SAPE      H5R            31.6036626922      -16.9791853536      -16.4830562942  MEMB      159             0.0000000000
     18249       159  SAPE      C26            31.1251921329      -16.9900810120      -14.4263661689  MEMB      159             0.0000000000
     18250       159  SAPE      H6R            30.4395828483      -17.8358651692      -14.5876289733  MEMB      159             0.0000000000
     18251       159  SAPE      C27            31.2735978108      -16.5485836217      -12.9854477794  MEMB      159             0.0000000000
     18252       159  SAPE      H7R            32.1211370845      -15.8350937148      -12.9062090743  MEMB      159             0.0000000000
     18253       159  SAPE      H7S            31.6084867857      -17.4494544050      -12.4331640629  MEMB      159             0.0000000000
     18254       159  SAPE      C28            30.1185455958      -15.9511679897      -12.2069898628  MEMB      159             0.0000000000
     18255       159  SAPE      H8R            29.2331474891      -15.6254912625      -12.7809986264  MEMB      159             0.0000000000
     18256       159  SAPE      C29            30.1272691268      -15.8396448859      -10.8573555933  MEMB      159             0.0000000000
     18257       159  SAPE      H9R            29.2556172395      -15.4096751928      -10.3365611652  MEMB      159             0.0000000000
     18258       159  SAPE      C210           31.2774922386      -16.2990439767       -9.9816091565  MEMB      159             0.0000000000
     18259       159  SAPE      H10R           32.1656363741      -16.4833856695      -10.6166110061  MEMB      159             0.0000000000
     18260       159  SAPE      H10S           31.0012137711      -17.2905023025       -9.5639054079  MEMB      159             0.0000000000
     18261       159  SAPE      C211           31.8245527762      -15.4536732965       -8.8628942943  MEMB      159             0.0000000000
     18262       159  SAPE      H11R           32.8961687256      -15.2219426716       -8.9696936945  MEMB      159             0.0000000000
     18263       159  SAPE      C212           31.2106797975      -15.0121019236       -7.7554492061  MEMB      159             0.0000000000
     18264       159  SAPE      H12R           31.8134866298      -14.4464663579       -7.0276560173  MEMB      159             0.0000000000
     18265       159  SAPE      C213           29.7897149575      -15.2456368063       -7.3263242186  MEMB      159             0.0000000000
     18266       159  SAPE      H13R           29.2512545248      -15.9526986217       -7.9940800736  MEMB      159             0.0000000000
     18267       159  SAPE      H13S           29.2271441190      -14.2880855434       -7.3561681653  MEMB      159             0.0000000000
     18268       159  SAPE      C214           29.8870803236      -15.8032952558       -5.9335912112  MEMB      159             0.0000000000
     18269       159  SAPE      H14R           30.2164719544      -16.8456809558       -5.9044522696  MEMB      159             0.0000000000
     18270       159  SAPE      C215           29.6540221470      -15.1639522063       -4.7755383611  MEMB      159             0.0000000000
     18271       159  SAPE      H15R           29.7392381632      -15.7267281440       -3.8322348673  MEMB      159             0.0000000000
     18272       159  SAPE      C216           29.2280374730      -13.7278857862       -4.6169597874  MEMB      159             0.0000000000
     18273       159  SAPE      H16R           28.9418933386      -13.2532202035       -5.5823821180  MEMB      159             0.0000000000
     18274       159  SAPE      H16S           30.0515204057      -13.1176165218       -4.1852022289  MEMB      159             0.0000000000
     18275       159  SAPE      C217           28.0143414908      -13.6859769543       -3.6814736350  MEMB      159             0.0000000000
     18276       159  SAPE      H17R           27.6414800146      -12.6370165885       -3.6192925397  MEMB      159             0.0000000000
     18277       159  SAPE      H17S           28.3212245159      -13.9866182908       -2.6526271125  MEMB      159             0.0000000000
     18278       159  SAPE      C218           26.8738587093      -14.6057309331       -4.1458980259  MEMB      159             0.0000000000
     18279       159  SAPE      H18R           27.1995844754      -15.6710862124       -4.1162940232  MEMB      159             0.0000000000
     18280       159  SAPE      H18S           26.5980391156      -14.3787741592       -5.2010982831  MEMB      159             0.0000000000
     18281       159  SAPE      C219           25.6553937389      -14.4680514172       -3.2429878065  MEMB      159             0.0000000000
     18282       159  SAPE      H19R           25.9944911883      -14.2643715792       -2.2021643367  MEMB      159             0.0000000000
     18283       159  SAPE      H19S           25.1151790164      -15.4403862810       -3.2298232078  MEMB      159             0.0000000000
     18284       159  SAPE      C220           24.7083213563      -13.3706872206       -3.7107219441  MEMB      159             0.0000000000
     18285       159  SAPE      H20R           23.9362887391      -13.1819445339       -2.9421301884  MEMB      159             0.0000000000
     18286       159  SAPE      H20S           24.1824964511      -13.6761347051       -4.6257760896  MEMB      159             0.0000000000
     18287       159  SAPE      H20T           25.2489150097      -12.4252348611       -3.9261939219  MEMB      159             0.0000000000
     18288       159  SAPE      C33            29.5571331680      -10.7245972125      -10.8945932647  MEMB      159             0.0000000000
     18289       159  SAPE      H3X            29.9927530119      -11.4329308963      -10.1566797504  MEMB      159             0.0000000000
     18290       159  SAPE      H3Y            28.4684596001      -10.9213582581      -10.8439438456  MEMB      159             0.0000000000
     18291       159  SAPE      C34            29.9106990092       -9.2730428604      -10.4020994606  MEMB      159             0.0000000000
     18292       159  SAPE      H4X            29.6046209656       -8.4815656909      -11.1117335317  MEMB      159             0.0000000000
     18293       159  SAPE      H4Y            30.9865807730       -9.0741639077      -10.3372606940  MEMB      159             0.0000000000
     18294       159  SAPE      C35            29.3119060696       -8.9476410626       -9.0226979098  MEMB      159             0.0000000000
     18295       159  SAPE      H5X            28.9720416853       -9.9067572158       -8.5655192899  MEMB      159             0.0000000000
     18296       159  SAPE      H5Y            28.4343883067       -8.2700422394       -9.0990861485  MEMB      159             0.0000000000
     18297       159  SAPE      C36            30.2621896798       -8.2606600604       -8.0505511948  MEMB      159             0.0000000000
     18298       159  SAPE      H6X            30.3330465554       -7.1821823938       -8.3014184533  MEMB      159             0.0000000000
     18299       159  SAPE      H6Y            31.2820571425       -8.6744458911       -8.1774355520  MEMB      159             0.0000000000
     18300       159  SAPE      C37            29.7973703628       -8.5160864046       -6.6084986354  MEMB      159             0.0000000000
     18301       159  SAPE      H7X            29.3703127313       -9.5385330470       -6.5205195442  MEMB      159             0.0000000000
     18302       159  SAPE      H7Y            28.9481739020       -7.8786681973       -6.3401756362  MEMB      159             0.0000000000
     18303       159  SAPE      C38            30.9367077780       -8.3839189746       -5.5951258841  MEMB      159             0.0000000000
     18304       159  SAPE      H8X            31.3814600926       -7.3700762270       -5.6147057515  MEMB      159             0.0000000000
     18305       159  SAPE      H8Y            31.7314689832       -9.0325520845       -5.9819200219  MEMB      159             0.0000000000
     18306       159  SAPE      C39            30.4928622549       -8.8208311813       -4.1850927668  MEMB      159             0.0000000000
     18307       159  SAPE      H9X            30.2255911610       -9.9010447106       -4.2225245788  MEMB      159             0.0000000000
     18308       159  SAPE      H9Y            29.5958420150       -8.2404383883       -3.9197992186  MEMB      159             0.0000000000
     18309       159  SAPE      C310           31.4978210716       -8.5925008882       -3.0526846973  MEMB      159             0.0000000000
     18310       159  SAPE      H10X           31.2985652256       -7.6608714969       -2.5110603730  MEMB      159             0.0000000000
     18311       159  SAPE      H10Y           32.4652233955       -8.3864111745       -3.5393945820  MEMB      159             0.0000000000
     18312       159  SAPE      C311           31.4999941864       -9.6667817991       -1.9399583500  MEMB      159             0.0000000000
     18313       159  SAPE      H11X           32.4453887514       -9.5428141125       -1.3595675146  MEMB      159             0.0000000000
     18314       159  SAPE      H11Y           31.5079589019      -10.6952187795       -2.3598006462  MEMB      159             0.0000000000
     18315       159  SAPE      C312           30.3433202443       -9.4667399130       -0.9371829394  MEMB      159             0.0000000000
     18316       159  SAPE      H12X           29.4455160043      -10.0408571026       -1.2436396709  MEMB      159             0.0000000000
     18317       159  SAPE      H12Y           30.0984837448       -8.3874019575       -0.9406351909  MEMB      159             0.0000000000
     18318       159  SAPE      C313           30.7239788369       -9.6917029439        0.5313628476  MEMB      159             0.0000000000
     18319       159  SAPE      H13X           31.6020311831       -9.0261620597        0.6953644036  MEMB      159             0.0000000000
     18320       159  SAPE      H13Y           31.0612452656      -10.7367159682        0.6915390598  MEMB      159             0.0000000000
     18321       159  SAPE      C314           29.6680205774       -9.2896385614        1.5949166710  MEMB      159             0.0000000000
     18322       159  SAPE      H14X           29.4488466924       -8.2037546994        1.5302487397  MEMB      159             0.0000000000
     18323       159  SAPE      H14Y           30.1108474013       -9.4715054613        2.6015135705  MEMB      159             0.0000000000
     18324       159  SAPE      C315           28.3530252671      -10.0783401599        1.5629296950  MEMB      159             0.0000000000
     18325       159  SAPE      H15X           27.7668192318       -9.7796524877        0.6646997341  MEMB      159             0.0000000000
     18326       159  SAPE      H15Y           27.7366730940       -9.8295213416        2.4572942744  MEMB      159             0.0000000000
     18327       159  SAPE      C316           28.6226536319      -11.5830432971        1.5199378152  MEMB      159             0.0000000000
     18328       159  SAPE      H16X           29.2405662322      -11.9104840898        2.3824373012  MEMB      159             0.0000000000
     18329       159  SAPE      H16Y           29.1961340305      -11.7804207886        0.5849816440  MEMB      159             0.0000000000
     18330       159  SAPE      C317           27.3589018511      -12.4138449330        1.4064968729  MEMB      159             0.0000000000
     18331       159  SAPE      H17X           26.7041309850      -11.8462354666        0.7218258124  MEMB      159             0.0000000000
     18332       159  SAPE      H17Y           26.8236729322      -12.5187534175        2.3764500417  MEMB      159             0.0000000000
     18333       159  SAPE      C318           27.6208638152      -13.7611735818        0.7464225194  MEMB      159             0.0000000000
     18334       159  SAPE      H18X           28.3652536459      -13.6626523818       -0.0725134464  MEMB      159             0.0000000000
     18335       159  SAPE      H18Y           26.6755951569      -14.1243735041        0.2904433050  MEMB      159             0.0000000000
     18336       159  SAPE      H18Z           27.9980698940      -14.4969489447        1.4876868537  MEMB      159             0.0000000000
     18337       160  CHL1      C3             32.1121408458        5.3998201135      -17.3686661722  MEMB      160             0.0000000000
     18338       160  CHL1      H3             31.7327674843        6.4338579813      -17.1976221635  MEMB      160             0.0000000000
     18339       160  CHL1      O3             32.4687463234        5.2568317082      -18.7363574642  MEMB      160             0.0000000000
     18340       160  CHL1      H3'            33.3277538898        5.6996963786      -18.8508625114  MEMB      160             0.0000000000
     18341       160  CHL1      C4             33.3432872306        5.1372277214      -16.4822992749  MEMB      160             0.0000000000
     18342       160  CHL1      H4A            33.7086162223        4.1334753644      -16.7627747085  MEMB      160             0.0000000000
     18343       160  CHL1      H4B            34.1389218342        5.8713837230      -16.7315399517  MEMB      160             0.0000000000
     18344       160  CHL1      C5             33.0355526901        5.1105571619      -15.0031716230  MEMB      160             0.0000000000
     18345       160  CHL1      C6             33.6798473147        5.8807721102      -14.1172677135  MEMB      160             0.0000000000
     18346       160  CHL1      H6             34.4830691971        6.5507680880      -14.4568389930  MEMB      160             0.0000000000
     18347       160  CHL1      C7             33.4357844167        5.8405583849      -12.6393152746  MEMB      160             0.0000000000
     18348       160  CHL1      H7A            34.4015292256        5.7814666104      -12.0908222470  MEMB      160             0.0000000000
     18349       160  CHL1      H7B            32.9311428774        6.7830373907      -12.3383346906  MEMB      160             0.0000000000
     18350       160  CHL1      C8             32.5456482518        4.6921474289      -12.1445387970  MEMB      160             0.0000000000
     18351       160  CHL1      H8             33.1954299462        3.8065007621      -11.9598599753  MEMB      160             0.0000000000
     18352       160  CHL1      C14            31.8270315299        5.1236629705      -10.8659269083  MEMB      160             0.0000000000
     18353       160  CHL1      H14            31.1280351720        5.9392471927      -11.1928407100  MEMB      160             0.0000000000
     18354       160  CHL1      C15            32.5994022029        5.7624562775       -9.7006374031  MEMB      160             0.0000000000
     18355       160  CHL1      H15A           33.4801956198        5.1400249344       -9.4767741072  MEMB      160             0.0000000000
     18356       160  CHL1      H15B           32.9187360591        6.8022055638       -9.9103061282  MEMB      160             0.0000000000
     18357       160  CHL1      C16            31.6136535318        5.6656639838       -8.5225709200  MEMB      160             0.0000000000
     18358       160  CHL1      H16A           32.1147683807        5.1130576373       -7.6988478795  MEMB      160             0.0000000000
     18359       160  CHL1      H16B           31.3076931951        6.6630558854       -8.1495791186  MEMB      160             0.0000000000
     18360       160  CHL1      C17            30.3881820456        4.8479654227       -9.0491753772  MEMB      160             0.0000000000
     18361       160  CHL1      H17            29.6774629939        5.5989020839       -9.4732491844  MEMB      160             0.0000000000
     18362       160  CHL1      C13            30.9491439588        4.0556495609      -10.2385534905  MEMB      160             0.0000000000
     18363       160  CHL1      C18            31.7914676056        2.8752025248       -9.6920567671  MEMB      160             0.0000000000
     18364       160  CHL1      H18A           32.4000002433        2.4049211539      -10.4880035692  MEMB      160             0.0000000000
     18365       160  CHL1      H18B           32.4830741373        3.1905153144       -8.8857404817  MEMB      160             0.0000000000
     18366       160  CHL1      H18C           31.1159807601        2.0975563805       -9.2816710168  MEMB      160             0.0000000000
     18367       160  CHL1      C12            29.9515658968        3.6018444289      -11.3053199509  MEMB      160             0.0000000000
     18368       160  CHL1      H12A           29.3057956509        2.8105371226      -10.9275911888  MEMB      160             0.0000000000
     18369       160  CHL1      H12B           29.3187037018        4.4771974230      -11.5598653191  MEMB      160             0.0000000000
     18370       160  CHL1      C11            30.6458435403        3.1336701230      -12.5860327417  MEMB      160             0.0000000000
     18371       160  CHL1      H11A           31.3237417273        2.2825116211      -12.3536974137  MEMB      160             0.0000000000
     18372       160  CHL1      H11B           29.8918519848        2.7663041744      -13.3080941332  MEMB      160             0.0000000000
     18373       160  CHL1      C9             31.4575266032        4.3163602460      -13.1583226589  MEMB      160             0.0000000000
     18374       160  CHL1      H9             30.7570802251        5.1883208644      -13.1884821538  MEMB      160             0.0000000000
     18375       160  CHL1      C10            31.9047567332        4.1488826103      -14.6242093593  MEMB      160             0.0000000000
     18376       160  CHL1      C19            32.4516895166        2.7195809411      -14.7751861156  MEMB      160             0.0000000000
     18377       160  CHL1      H19A           31.6570637606        1.9555622778      -14.6649184146  MEMB      160             0.0000000000
     18378       160  CHL1      H19B           32.9572536667        2.5296168271      -15.7401795997  MEMB      160             0.0000000000
     18379       160  CHL1      H19C           33.1781459098        2.5837703108      -13.9639865953  MEMB      160             0.0000000000
     18380       160  CHL1      C1             30.6782618028        4.3741231308      -15.5547409686  MEMB      160             0.0000000000
     18381       160  CHL1      H1A            29.9249458415        3.5815602685      -15.3604570464  MEMB      160             0.0000000000
     18382       160  CHL1      H1B            30.2072962329        5.3507147401      -15.3063466323  MEMB      160             0.0000000000
     18383       160  CHL1      C2             31.0181637762        4.3759648514      -17.0526374442  MEMB      160             0.0000000000
     18384       160  CHL1      H2A            30.1154004750        4.5930935554      -17.6636652192  MEMB      160             0.0000000000
     18385       160  CHL1      H2B            31.3823041338        3.3635903153      -17.3350746637  MEMB      160             0.0000000000
     18386       160  CHL1      C20            29.6309729413        4.0797311365       -7.9640325050  MEMB      160             0.0000000000
     18387       160  CHL1      H20            30.2943619641        3.2937749719       -7.5335045858  MEMB      160             0.0000000000
     18388       160  CHL1      C21            28.3723751990        3.3712411122       -8.5109391506  MEMB      160             0.0000000000
     18389       160  CHL1      H21A           27.7162114383        3.0337422823       -7.6809636283  MEMB      160             0.0000000000
     18390       160  CHL1      H21B           28.6546778119        2.4586352981       -9.0676717667  MEMB      160             0.0000000000
     18391       160  CHL1      H21C           27.7853122451        4.0478734661       -9.1656063644  MEMB      160             0.0000000000
     18392       160  CHL1      C22            29.2021274545        4.9919282832       -6.8081206591  MEMB      160             0.0000000000
     18393       160  CHL1      H22A           28.9934369019        6.0290364829       -7.1485932672  MEMB      160             0.0000000000
     18394       160  CHL1      H22B           28.2408284079        4.5967351246       -6.4056172480  MEMB      160             0.0000000000
     18395       160  CHL1      C23            30.2044284005        4.9829228686       -5.6553193011  MEMB      160             0.0000000000
     18396       160  CHL1      H23A           30.6145555736        3.9592662261       -5.5075140212  MEMB      160             0.0000000000
     18397       160  CHL1      H23B           31.0480364183        5.6782869627       -5.8606228902  MEMB      160             0.0000000000
     18398       160  CHL1      C24            29.4919137108        5.4158701229       -4.3935428796  MEMB      160             0.0000000000
     18399       160  CHL1      H24A           29.2340806135        6.4918899706       -4.4922216403  MEMB      160             0.0000000000
     18400       160  CHL1      H24B           28.5260540175        4.8669941638       -4.3028987372  MEMB      160             0.0000000000
     18401       160  CHL1      C25            30.2631293361        5.1867495916       -3.0932469123  MEMB      160             0.0000000000
     18402       160  CHL1      H25            30.3504733190        4.0918269178       -2.9007948598  MEMB      160             0.0000000000
     18403       160  CHL1      C26            31.6734893239        5.7922943438       -3.0999849921  MEMB      160             0.0000000000
     18404       160  CHL1      H26A           32.3570329276        5.1758379383       -3.7216176503  MEMB      160             0.0000000000
     18405       160  CHL1      H26B           31.6555036407        6.8150202723       -3.5252527486  MEMB      160             0.0000000000
     18406       160  CHL1      H26C           32.0874407230        5.8455924956       -2.0709617068  MEMB      160             0.0000000000
     18407       160  CHL1      C27            29.3608148134        5.7982571105       -2.0349361735  MEMB      160             0.0000000000
     18408       160  CHL1      H27A           29.1729592621        6.8563665287       -2.2986219195  MEMB      160             0.0000000000
     18409       160  CHL1      H27B           28.3761176654        5.2980860492       -2.1127894001  MEMB      160             0.0000000000
     18410       160  CHL1      H27C           29.7626739096        5.7147767238       -1.0058514863  MEMB      160             0.0000000000
     18411       161  SAPI      C12            26.1082712408      -21.4992201549      -24.5630260451  MEMB      161             0.0000000000
     18412       161  SAPI      H2             26.7925635662      -20.6820436480      -24.2370488437  MEMB      161             0.0000000000
     18413       161  SAPI      O2             24.8194557840      -20.8934106688      -24.7161105601  MEMB      161             0.0000000000
     18414       161  SAPI      HO2            24.8697002279      -20.3921184581      -25.5454685807  MEMB      161             0.0000000000
     18415       161  SAPI      C13            26.6374007899      -22.0550800847      -25.8713061831  MEMB      161             0.0000000000
     18416       161  SAPI      H3             27.6633638339      -22.4568538199      -25.6977063993  MEMB      161             0.0000000000
     18417       161  SAPI      O3             26.7349024114      -20.9863201120      -26.8221210462  MEMB      161             0.0000000000
     18418       161  SAPI      HO3            27.3894401173      -20.3258278001      -26.5402146572  MEMB      161             0.0000000000
     18419       161  SAPI      C14            25.7617229138      -23.2202854235      -26.3367577639  MEMB      161             0.0000000000
     18420       161  SAPI      H4             24.7352504012      -22.8519741586      -26.5596716753  MEMB      161             0.0000000000
     18421       161  SAPI      O4             26.2921755039      -23.8072328592      -27.5361583368  MEMB      161             0.0000000000
     18422       161  SAPI      HO4            26.7280764710      -24.6321983364      -27.2848269238  MEMB      161             0.0000000000
     18423       161  SAPI      C15            25.6985615547      -24.3056535635      -25.2675883421  MEMB      161             0.0000000000
     18424       161  SAPI      H5             26.7194778088      -24.7296466622      -25.1078905359  MEMB      161             0.0000000000
     18425       161  SAPI      O5             24.8654123756      -25.3793757024      -25.7306832519  MEMB      161             0.0000000000
     18426       161  SAPI      HO5            24.0933169672      -25.4105572078      -25.1500189782  MEMB      161             0.0000000000
     18427       161  SAPI      C16            25.2092354000      -23.7432476495      -23.9298537832  MEMB      161             0.0000000000
     18428       161  SAPI      H6             24.1716271404      -23.3529530407      -24.0150853368  MEMB      161             0.0000000000
     18429       161  SAPI      O6             25.2330721623      -24.7648596259      -22.9323697525  MEMB      161             0.0000000000
     18430       161  SAPI      HO6            25.8650177515      -24.4999134815      -22.2424951835  MEMB      161             0.0000000000
     18431       161  SAPI      C11            26.1416867060      -22.6098557560      -23.5264828323  MEMB      161             0.0000000000
     18432       161  SAPI      H1             27.1834127466      -23.0376703174      -23.5958052938  MEMB      161             0.0000000000
     18433       161  SAPI      P              27.0916787485      -22.1480512292      -21.1060363655  MEMB      161             0.0000000000
     18434       161  SAPI      O13            28.3027560877      -21.4861097278      -21.6727962887  MEMB      161             0.0000000000
     18435       161  SAPI      O14            27.1701713089      -23.5684053157      -20.7016461527  MEMB      161             0.0000000000
     18436       161  SAPI      O12            25.8842877762      -22.0247600097      -22.2384138171  MEMB      161             0.0000000000
     18437       161  SAPI      O11            26.5262974116      -21.2959378850      -19.9373882120  MEMB      161             0.0000000000
     18438       161  SAPI      C1             25.6247827213      -22.0096800323      -19.1009800663  MEMB      161             0.0000000000
     18439       161  SAPI      HA             24.7371062251      -22.3634734506      -19.6849281256  MEMB      161             0.0000000000
     18440       161  SAPI      HB             26.1056548764      -22.8842601040      -18.5923924675  MEMB      161             0.0000000000
     18441       161  SAPI      C2             25.1381874716      -21.0459838060      -18.0342452695  MEMB      161             0.0000000000
     18442       161  SAPI      HS             24.6500345661      -20.2224043033      -18.6160000686  MEMB      161             0.0000000000
     18443       161  SAPI      O21            26.2549493377      -20.5770663302      -17.2466573306  MEMB      161             0.0000000000
     18444       161  SAPI      C21            25.9579882594      -19.4017106286      -16.7134848423  MEMB      161             0.0000000000
     18445       161  SAPI      O22            24.8671688705      -18.8576297641      -16.8240332486  MEMB      161             0.0000000000
     18446       161  SAPI      C22            27.1475675199      -18.8443518712      -15.9331986323  MEMB      161             0.0000000000
     18447       161  SAPI      H2R            27.9588839949      -19.5944924282      -15.8759429323  MEMB      161             0.0000000000
     18448       161  SAPI      H2S            27.5265653801      -17.9670439433      -16.4991823908  MEMB      161             0.0000000000
     18449       161  SAPI      C3             24.0860342047      -21.7620985276      -17.1671870891  MEMB      161             0.0000000000
     18450       161  SAPI      HX             23.3556996814      -22.0955974010      -17.9326199923  MEMB      161             0.0000000000
     18451       161  SAPI      HY             23.6140085859      -21.0521644763      -16.4542052518  MEMB      161             0.0000000000
     18452       161  SAPI      O31            24.6512157496      -22.8845494880      -16.4770148993  MEMB      161             0.0000000000
     18453       161  SAPI      C31            23.8543636141      -23.9477447281      -16.3894103484  MEMB      161             0.0000000000
     18454       161  SAPI      O32            22.7205155053      -24.0134899821      -16.8303833299  MEMB      161             0.0000000000
     18455       161  SAPI      C32            24.5275046115      -24.9628385274      -15.5077830299  MEMB      161             0.0000000000
     18456       161  SAPI      H2X            25.5939325441      -24.6717419763      -15.4351015428  MEMB      161             0.0000000000
     18457       161  SAPI      H2Y            24.4786374657      -25.9705807975      -15.9625611102  MEMB      161             0.0000000000
     18458       161  SAPI      C23            26.6922282446      -18.4187433133      -14.5228102563  MEMB      161             0.0000000000
     18459       161  SAPI      H3R            25.7698530103      -17.7967073889      -14.6273995065  MEMB      161             0.0000000000
     18460       161  SAPI      H3S            27.4672146533      -17.7713029779      -14.0536656501  MEMB      161             0.0000000000
     18461       161  SAPI      C24            26.4239190658      -19.6341228347      -13.6194657917  MEMB      161             0.0000000000
     18462       161  SAPI      H4R            27.3856160976      -20.0958489619      -13.3069758326  MEMB      161             0.0000000000
     18463       161  SAPI      H4S            25.8934298317      -20.4145951240      -14.2115239209  MEMB      161             0.0000000000
     18464       161  SAPI      C25            25.6218980731      -19.2038385006      -12.4181952226  MEMB      161             0.0000000000
     18465       161  SAPI      H5R            26.1609379567      -18.5938005229      -11.6780041915  MEMB      161             0.0000000000
     18466       161  SAPI      C26            24.3242394574      -19.4909006026      -12.2202377817  MEMB      161             0.0000000000
     18467       161  SAPI      H6R            23.8204069437      -19.1089222436      -11.3156600222  MEMB      161             0.0000000000
     18468       161  SAPI      C27            23.4739826358      -20.2956708481      -13.1774177326  MEMB      161             0.0000000000
     18469       161  SAPI      H7R            24.0288407114      -21.2102459561      -13.4860489112  MEMB      161             0.0000000000
     18470       161  SAPI      H7S            23.3162525999      -19.7283586430      -14.1223203014  MEMB      161             0.0000000000
     18471       161  SAPI      C28            22.1453826582      -20.6905681578      -12.5816035126  MEMB      161             0.0000000000
     18472       161  SAPI      H8R            21.2934560240      -20.0487945573      -12.8450164681  MEMB      161             0.0000000000
     18473       161  SAPI      C29            21.9667531301      -21.7202108264      -11.7348959570  MEMB      161             0.0000000000
     18474       161  SAPI      H9R            20.9637092560      -21.9345522803      -11.3276021389  MEMB      161             0.0000000000
     18475       161  SAPI      C210           23.1003850974      -22.6046597623      -11.2853660251  MEMB      161             0.0000000000
     18476       161  SAPI      H10R           23.7378456611      -22.0311962988      -10.5785416136  MEMB      161             0.0000000000
     18477       161  SAPI      H10S           23.7785441127      -22.8116321347      -12.1355307532  MEMB      161             0.0000000000
     18478       161  SAPI      C211           22.6796447511      -23.9277977615      -10.7030672349  MEMB      161             0.0000000000
     18479       161  SAPI      H11R           22.2308794234      -24.6321913500      -11.4223960500  MEMB      161             0.0000000000
     18480       161  SAPI      C212           22.8152485195      -24.3021212604       -9.4174581745  MEMB      161             0.0000000000
     18481       161  SAPI      H12R           22.5020818722      -25.3177230809       -9.1313579250  MEMB      161             0.0000000000
     18482       161  SAPI      C213           23.4091021824      -23.4695168605       -8.3042873543  MEMB      161             0.0000000000
     18483       161  SAPI      H13R           22.7581574505      -23.5638436695       -7.4084664182  MEMB      161             0.0000000000
     18484       161  SAPI      H13S           23.3822954301      -22.3874647864       -8.5646156905  MEMB      161             0.0000000000
     18485       161  SAPI      C214           24.8323903847      -23.8416136875       -7.9699339900  MEMB      161             0.0000000000
     18486       161  SAPI      H14R           25.4308909177      -24.2706014785       -8.7909758686  MEMB      161             0.0000000000
     18487       161  SAPI      C215           25.4166956610      -23.6452172403       -6.7755108586  MEMB      161             0.0000000000
     18488       161  SAPI      H15R           26.4626704984      -23.9617548914       -6.6350170047  MEMB      161             0.0000000000
     18489       161  SAPI      C216           24.7621999847      -23.0220033431       -5.5654404735  MEMB      161             0.0000000000
     18490       161  SAPI      H16R           23.8308924743      -23.5672129863       -5.2890816292  MEMB      161             0.0000000000
     18491       161  SAPI      H16S           24.4900724846      -21.9628658534       -5.7669344693  MEMB      161             0.0000000000
     18492       161  SAPI      C217           25.7167986428      -23.0569386718       -4.3623285048  MEMB      161             0.0000000000
     18493       161  SAPI      H17R           26.7187165716      -22.6672754237       -4.6433307449  MEMB      161             0.0000000000
     18494       161  SAPI      H17S           25.8320403680      -24.1225343228       -4.0685720167  MEMB      161             0.0000000000
     18495       161  SAPI      C218           25.2220960819      -22.3125716629       -3.1133567266  MEMB      161             0.0000000000
     18496       161  SAPI      H18R           25.8742450890      -22.6276037723       -2.2650088924  MEMB      161             0.0000000000
     18497       161  SAPI      H18S           24.1928717053      -22.6622875380       -2.8892510712  MEMB      161             0.0000000000
     18498       161  SAPI      C219           25.2599654523      -20.7737410801       -3.1873021614  MEMB      161             0.0000000000
     18499       161  SAPI      H19R           24.2674079013      -20.4172086037       -3.5381964897  MEMB      161             0.0000000000
     18500       161  SAPI      H19S           25.9846788209      -20.4420343844       -3.9620328013  MEMB      161             0.0000000000
     18501       161  SAPI      C220           25.6258876505      -20.1165791644       -1.8402287547  MEMB      161             0.0000000000
     18502       161  SAPI      H20R           25.2046616892      -20.7044110395       -0.9979915183  MEMB      161             0.0000000000
     18503       161  SAPI      H20S           25.2145510891      -19.0866950811       -1.7815025351  MEMB      161             0.0000000000
     18504       161  SAPI      H20T           26.7149080377      -20.0646140586       -1.6662179082  MEMB      161             0.0000000000
     18505       161  SAPI      C33            23.8382777039      -24.9558280504      -14.1348441903  MEMB      161             0.0000000000
     18506       161  SAPI      H3X            22.9075768605      -25.5672227899      -14.1844493568  MEMB      161             0.0000000000
     18507       161  SAPI      H3Y            23.5432721627      -23.9210720929      -13.8494069147  MEMB      161             0.0000000000
     18508       161  SAPI      C34            24.7733830831      -25.5045718679      -13.0693047123  MEMB      161             0.0000000000
     18509       161  SAPI      H4X            25.1364733371      -26.4998544441      -13.4185549350  MEMB      161             0.0000000000
     18510       161  SAPI      H4Y            24.2313320892      -25.6573167891      -12.1127548944  MEMB      161             0.0000000000
     18511       161  SAPI      C35            25.9972855511      -24.6258819552      -12.8139278867  MEMB      161             0.0000000000
     18512       161  SAPI      H5X            25.7321627179      -23.6046824841      -12.4687484559  MEMB      161             0.0000000000
     18513       161  SAPI      H5Y            26.6019204509      -24.5017457657      -13.7382297417  MEMB      161             0.0000000000
     18514       161  SAPI      C36            26.8847861138      -25.3257675388      -11.8016342235  MEMB      161             0.0000000000
     18515       161  SAPI      H6X            26.8320054463      -26.4198617838      -12.0080693135  MEMB      161             0.0000000000
     18516       161  SAPI      H6Y            26.4927297534      -25.1495891603      -10.7777861579  MEMB      161             0.0000000000
     18517       161  SAPI      C37            28.3407567639      -24.9046970858      -11.9306246494  MEMB      161             0.0000000000
     18518       161  SAPI      H7X            28.6831675169      -25.1216017201      -12.9693768872  MEMB      161             0.0000000000
     18519       161  SAPI      H7Y            28.9310840680      -25.5366971817      -11.2311319159  MEMB      161             0.0000000000
     18520       161  SAPI      C38            28.5575292701      -23.4290028038      -11.5961657004  MEMB      161             0.0000000000
     18521       161  SAPI      H8X            28.0094080372      -22.7981218650      -12.3323222832  MEMB      161             0.0000000000
     18522       161  SAPI      H8Y            29.6387248457      -23.1887918104      -11.6893445349  MEMB      161             0.0000000000
     18523       161  SAPI      C39            28.0581847487      -23.1119660230      -10.1800588667  MEMB      161             0.0000000000
     18524       161  SAPI      H9X            28.1621803989      -24.0259578690       -9.5487525373  MEMB      161             0.0000000000
     18525       161  SAPI      H9Y            26.9712587964      -22.8688605796      -10.2301187471  MEMB      161             0.0000000000
     18526       161  SAPI      C310           28.8291753626      -21.9745349289       -9.5075056497  MEMB      161             0.0000000000
     18527       161  SAPI      H10X           28.9172207649      -21.1209457562      -10.2149892355  MEMB      161             0.0000000000
     18528       161  SAPI      H10Y           29.8576048142      -22.3373495434       -9.2789775392  MEMB      161             0.0000000000
     18529       161  SAPI      C311           28.1598277063      -21.4942499995       -8.2126935841  MEMB      161             0.0000000000
     18530       161  SAPI      H11X           28.0279587682      -22.3678006407       -7.5340844841  MEMB      161             0.0000000000
     18531       161  SAPI      H11Y           27.1432191862      -21.1005688943       -8.4371666178  MEMB      161             0.0000000000
     18532       161  SAPI      C312           28.9820399184      -20.4303644068       -7.4712966849  MEMB      161             0.0000000000
     18533       161  SAPI      H12X           29.0829727871      -19.5084350584       -8.0852974125  MEMB      161             0.0000000000
     18534       161  SAPI      H12Y           30.0014856220      -20.8484296209       -7.3183236344  MEMB      161             0.0000000000
     18535       161  SAPI      C313           28.3760021100      -20.0954798241       -6.1023196745  MEMB      161             0.0000000000
     18536       161  SAPI      H13X           27.9449366418      -21.0319679529       -5.6823567533  MEMB      161             0.0000000000
     18537       161  SAPI      H13Y           27.5396337479      -19.3707421042       -6.2108280531  MEMB      161             0.0000000000
     18538       161  SAPI      C314           29.3838377851      -19.5660874711       -5.0769913339  MEMB      161             0.0000000000
     18539       161  SAPI      H14X           29.6585960809      -18.5314603737       -5.3335769579  MEMB      161             0.0000000000
     18540       161  SAPI      H14Y           30.3226186330      -20.1575240459       -5.1009192927  MEMB      161             0.0000000000
     18541       161  SAPI      C315           28.7935787476      -19.5816458583       -3.6678640106  MEMB      161             0.0000000000
     18542       161  SAPI      H15X           27.7932677603      -19.0968723558       -3.6946572084  MEMB      161             0.0000000000
     18543       161  SAPI      H15Y           29.3727212243      -18.9568300589       -2.9744589921  MEMB      161             0.0000000000
     18544       161  SAPI      C316           28.6849097057      -20.9750413877       -3.0418625373  MEMB      161             0.0000000000
     18545       161  SAPI      H16X           27.6816160564      -21.3738656039       -3.2514440789  MEMB      161             0.0000000000
     18546       161  SAPI      H16Y           28.7551826408      -20.8735961530       -1.9371720118  MEMB      161             0.0000000000
     18547       161  SAPI      C317           29.6255383983      -22.0802134731       -3.5215907551  MEMB      161             0.0000000000
     18548       161  SAPI      H17X           30.6858975619      -21.7663528733       -3.4896554755  MEMB      161             0.0000000000
     18549       161  SAPI      H17Y           29.4054192780      -22.3343232712       -4.5829448286  MEMB      161             0.0000000000
     18550       161  SAPI      C318           29.4175550890      -23.3020551360       -2.6297673064  MEMB      161             0.0000000000
     18551       161  SAPI      H18X           29.5182574640      -23.0743638218       -1.5539731349  MEMB      161             0.0000000000
     18552       161  SAPI      H18Y           30.1474522601      -24.0986755211       -2.8729661670  MEMB      161             0.0000000000
     18553       161  SAPI      H18Z           28.3762562579      -23.6606768595       -2.7593832619  MEMB      161             0.0000000000
     18554       162  OSM       N             -20.2280769855       26.7980676426      -23.1540321005  MEMB      162             0.0000000000
     18555       162  OSM       C15           -20.8405375280       26.6597183122      -24.4986710106  MEMB      162             0.0000000000
     18556       162  OSM       H15A          -21.8724744095       26.3566404483      -24.4300419805  MEMB      162             0.0000000000
     18557       162  OSM       H15B          -20.2690397751       25.9329582603      -25.0702409019  MEMB      162             0.0000000000
     18558       162  OSM       H15C          -20.7450074321       27.5898279119      -25.0607593975  MEMB      162             0.0000000000
     18559       162  OSM       C14           -19.8961712481       25.4375850557      -22.6093528445  MEMB      162             0.0000000000
     18560       162  OSM       H14A          -20.7777003642       24.8224839076      -22.5205538673  MEMB      162             0.0000000000
     18561       162  OSM       H14B          -19.4994690112       25.5314750130      -21.5939669921  MEMB      162             0.0000000000
     18562       162  OSM       H14C          -19.1846385554       24.8927018632      -23.2125418327  MEMB      162             0.0000000000
     18563       162  OSM       C13           -18.9566938058       27.5513370725      -23.3753113055  MEMB      162             0.0000000000
     18564       162  OSM       H13A          -18.3149946967       27.0410196587      -24.0915967437  MEMB      162             0.0000000000
     18565       162  OSM       H13B          -18.4050311529       27.6626726862      -22.4554737829  MEMB      162             0.0000000000
     18566       162  OSM       H13C          -19.1610470355       28.5283594949      -23.7982818284  MEMB      162             0.0000000000
     18567       162  OSM       C12           -21.0879659863       27.5663827733      -22.1736903408  MEMB      162             0.0000000000
     18568       162  OSM       H12A          -22.0105089556       27.0164958521      -21.9669628970  MEMB      162             0.0000000000
     18569       162  OSM       H12B          -21.3779230717       28.5304945221      -22.5672893095  MEMB      162             0.0000000000
     18570       162  OSM       C11           -20.4487346204       27.7389884331      -20.7911375976  MEMB      162             0.0000000000
     18571       162  OSM       H11A          -20.9135185176       28.6116605509      -20.2717846662  MEMB      162             0.0000000000
     18572       162  OSM       H11B          -19.3598395943       27.9536165318      -20.8320082601  MEMB      162             0.0000000000
     18573       162  OSM       P             -22.0175714513       26.2907251976      -19.3439349113  MEMB      162             0.0000000000
     18574       162  OSM       O13           -23.0899860233       26.6277166039      -20.3181614949  MEMB      162             0.0000000000
     18575       162  OSM       O14           -22.0825721087       24.9272886527      -18.7895942375  MEMB      162             0.0000000000
     18576       162  OSM       O11           -21.9371979052       27.3796303483      -18.1828257393  MEMB      162             0.0000000000
     18577       162  OSM       O12           -20.6471189664       26.5098062517      -20.0988614117  MEMB      162             0.0000000000
     18578       162  OSM       C1S           -20.6769888780       27.8893852384      -17.6872122500  MEMB      162             0.0000000000
     18579       162  OSM       H1S           -20.5600750773       28.9451165116      -18.0126449245  MEMB      162             0.0000000000
     18580       162  OSM       H1T           -19.7950425964       27.3276755585      -18.0819163745  MEMB      162             0.0000000000
     18581       162  OSM       NF            -20.9557000687       26.5466892939      -15.6613118137  MEMB      162             0.0000000000
     18582       162  OSM       HNF           -21.9232842715       26.4462079682      -15.4997050974  MEMB      162             0.0000000000
     18583       162  OSM       C2S           -20.5231506694       27.8281752455      -16.1309763334  MEMB      162             0.0000000000
     18584       162  OSM       H2S           -19.4445161614       27.9521046787      -15.8766460973  MEMB      162             0.0000000000
     18585       162  OSM       C3S           -21.3029683068       28.9843651105      -15.4486451782  MEMB      162             0.0000000000
     18586       162  OSM       H3S           -22.3586077412       29.0149452653      -15.7860143234  MEMB      162             0.0000000000
     18587       162  OSM       O3            -20.7181968961       30.2408021233      -15.7841075731  MEMB      162             0.0000000000
     18588       162  OSM       HO3           -20.0403238343       30.0433001914      -16.4293714599  MEMB      162             0.0000000000
     18589       162  OSM       C4S           -21.2553277216       28.8855964442      -13.9313997473  MEMB      162             0.0000000000
     18590       162  OSM       H4S           -20.2909378054       29.1607994382      -13.4813486003  MEMB      162             0.0000000000
     18591       162  OSM       C5S           -22.2855245692       28.5072712767      -13.1409239854  MEMB      162             0.0000000000
     18592       162  OSM       H5S           -23.2353476033       28.2409247759      -13.6313335272  MEMB      162             0.0000000000
     18593       162  OSM       C6S           -22.3184763093       28.3873623025      -11.6320825996  MEMB      162             0.0000000000
     18594       162  OSM       H6S           -22.2573272805       27.3114013317      -11.3501122743  MEMB      162             0.0000000000
     18595       162  OSM       H6T           -23.3116394317       28.7399722969      -11.2744448927  MEMB      162             0.0000000000
     18596       162  OSM       C7S           -21.2518989231       29.1480938465      -10.8099566179  MEMB      162             0.0000000000
     18597       162  OSM       H7S           -21.3159183991       30.2412946649      -10.9976136643  MEMB      162             0.0000000000
     18598       162  OSM       H7T           -20.2461243781       28.7947830928      -11.1412752762  MEMB      162             0.0000000000
     18599       162  OSM       C8S           -21.3303464859       28.8756067633       -9.2955759241  MEMB      162             0.0000000000
     18600       162  OSM       H8S           -20.3900553264       29.2271145924       -8.8120998557  MEMB      162             0.0000000000
     18601       162  OSM       H8T           -21.3791606015       27.7718512895       -9.1669672074  MEMB      162             0.0000000000
     18602       162  OSM       C9S           -22.5101538355       29.4876191345       -8.5174102187  MEMB      162             0.0000000000
     18603       162  OSM       H9S           -23.3774004796       29.6504122752       -9.1941779321  MEMB      162             0.0000000000
     18604       162  OSM       H9T           -22.2147683016       30.4840229650       -8.1195346968  MEMB      162             0.0000000000
     18605       162  OSM       C10S          -22.9638351442       28.5756768853       -7.3568644176  MEMB      162             0.0000000000
     18606       162  OSM       H10S          -23.4316763959       27.6723905902       -7.8103297085  MEMB      162             0.0000000000
     18607       162  OSM       H10T          -23.7400997027       29.0863199832       -6.7457982013  MEMB      162             0.0000000000
     18608       162  OSM       C11S          -21.8203003322       28.1013372484       -6.4402478160  MEMB      162             0.0000000000
     18609       162  OSM       H11S          -21.4221432485       28.9569687682       -5.8602427758  MEMB      162             0.0000000000
     18610       162  OSM       H11T          -20.9778472365       27.7405969310       -7.0549610491  MEMB      162             0.0000000000
     18611       162  OSM       C12S          -22.2105957413       26.9399926382       -5.5073493716  MEMB      162             0.0000000000
     18612       162  OSM       H12S          -21.3658321111       26.2204068701       -5.4238775106  MEMB      162             0.0000000000
     18613       162  OSM       H12T          -23.0701385425       26.3873386486       -5.9442959513  MEMB      162             0.0000000000
     18614       162  OSM       C13S          -22.5478208248       27.4546774503       -4.1098113809  MEMB      162             0.0000000000
     18615       162  OSM       H13S          -23.2694318742       28.2942723736       -4.2444118879  MEMB      162             0.0000000000
     18616       162  OSM       H13T          -21.6283034219       27.8676585899       -3.6354790457  MEMB      162             0.0000000000
     18617       162  OSM       C14S          -23.1871074191       26.4343882079       -3.1610961024  MEMB      162             0.0000000000
     18618       162  OSM       H14S          -22.4604071779       25.6407980419       -2.8798457655  MEMB      162             0.0000000000
     18619       162  OSM       H14T          -24.0373387768       25.9498130128       -3.6891203698  MEMB      162             0.0000000000
     18620       162  OSM       C15S          -23.7086664054       27.1555798562       -1.9097761209  MEMB      162             0.0000000000
     18621       162  OSM       H15S          -23.9044179806       28.2153038254       -2.1965523128  MEMB      162             0.0000000000
     18622       162  OSM       H15T          -22.9264492698       27.1757480964       -1.1191590773  MEMB      162             0.0000000000
     18623       162  OSM       C16S          -25.0452360533       26.6325926041       -1.3718613553  MEMB      162             0.0000000000
     18624       162  OSM       H16S          -24.8647905159       25.7192100485       -0.7620062657  MEMB      162             0.0000000000
     18625       162  OSM       H16T          -25.7113393401       26.3546872665       -2.2172744786  MEMB      162             0.0000000000
     18626       162  OSM       C17S          -25.7628463968       27.6892889292       -0.5197795189  MEMB      162             0.0000000000
     18627       162  OSM       H17S          -26.7385637192       27.2792083855       -0.1727432697  MEMB      162             0.0000000000
     18628       162  OSM       H17T          -25.9718600156       28.6004078470       -1.1255459420  MEMB      162             0.0000000000
     18629       162  OSM       C18S          -24.9293033597       28.0647964874        0.6916979505  MEMB      162             0.0000000000
     18630       162  OSM       H18S          -24.0255588481       28.6505611020        0.4146026659  MEMB      162             0.0000000000
     18631       162  OSM       H18T          -24.5966268421       27.1148570513        1.1512264273  MEMB      162             0.0000000000
     18632       162  OSM       H18U          -25.5060977361       28.6184298489        1.4548274973  MEMB      162             0.0000000000
     18633       162  OSM       C1F           -20.1971226976       25.4650429699      -15.7641462769  MEMB      162             0.0000000000
     18634       162  OSM       OF            -19.1971526411       25.4569122990      -16.4707230383  MEMB      162             0.0000000000
     18635       162  OSM       C2F           -20.6327714146       24.2802585748      -14.9592738689  MEMB      162             0.0000000000
     18636       162  OSM       H2F           -19.7463581393       23.6478834824      -14.7319864455  MEMB      162             0.0000000000
     18637       162  OSM       H2G           -21.3253304170       23.6834644003      -15.5930788217  MEMB      162             0.0000000000
     18638       162  OSM       C3F           -21.3612282145       24.6595573571      -13.6363640713  MEMB      162             0.0000000000
     18639       162  OSM       H3F           -22.0517608875       23.8214434563      -13.4034169089  MEMB      162             0.0000000000
     18640       162  OSM       H3G           -22.0317017442       25.5365057412      -13.7116888686  MEMB      162             0.0000000000
     18641       162  OSM       C4F           -20.4404422171       24.8378620915      -12.4167113944  MEMB      162             0.0000000000
     18642       162  OSM       H4F           -20.1050192825       25.8948546216      -12.3428915886  MEMB      162             0.0000000000
     18643       162  OSM       H4G           -19.5263456020       24.2086321783      -12.5299532947  MEMB      162             0.0000000000
     18644       162  OSM       C5F           -21.1571260612       24.3781085312      -11.1364664737  MEMB      162             0.0000000000
     18645       162  OSM       H5F           -20.8995062797       23.3087383069      -10.9941659046  MEMB      162             0.0000000000
     18646       162  OSM       H5G           -22.2607271509       24.4436902742      -11.2698668481  MEMB      162             0.0000000000
     18647       162  OSM       C6F           -20.7730941233       25.1281536169       -9.8631916296  MEMB      162             0.0000000000
     18648       162  OSM       H6F           -21.6849398887       25.2849193984       -9.2380067217  MEMB      162             0.0000000000
     18649       162  OSM       H6G           -20.3792679851       26.1256871369      -10.1482180375  MEMB      162             0.0000000000
     18650       162  OSM       C7F           -19.7580493775       24.3455815658       -9.0157950129  MEMB      162             0.0000000000
     18651       162  OSM       H7F           -18.8357120356       24.1653988425       -9.5904850943  MEMB      162             0.0000000000
     18652       162  OSM       H7G           -20.1515527656       23.3261625575       -8.8544628449  MEMB      162             0.0000000000
     18653       162  OSM       C8F           -19.4898003352       25.0106425750       -7.6524375378  MEMB      162             0.0000000000
     18654       162  OSM       H8F           -18.8777254047       24.3359305953       -7.0137693329  MEMB      162             0.0000000000
     18655       162  OSM       H8G           -20.4620128088       25.1339840273       -7.1365197887  MEMB      162             0.0000000000
     18656       162  OSM       C9F           -18.9215872378       26.3943574086       -7.7944059884  MEMB      162             0.0000000000
     18657       162  OSM       H9F           -19.2291255071       26.9155909788       -8.7087281785  MEMB      162             0.0000000000
     18658       162  OSM       C10F          -18.0701889230       27.0200759233       -6.9721487420  MEMB      162             0.0000000000
     18659       162  OSM       H10F          -17.7302380615       28.0353847257       -7.2324838405  MEMB      162             0.0000000000
     18660       162  OSM       C11F          -17.4983174601       26.4357503333       -5.7163991035  MEMB      162             0.0000000000
     18661       162  OSM       H11F          -16.4458974800       26.7643684129       -5.6559129067  MEMB      162             0.0000000000
     18662       162  OSM       H11G          -17.4085120380       25.3324589639       -5.8261274701  MEMB      162             0.0000000000
     18663       162  OSM       C12F          -18.2676900113       26.7249192026       -4.3986264750  MEMB      162             0.0000000000
     18664       162  OSM       H12F          -19.3569118181       26.5856013480       -4.5605662034  MEMB      162             0.0000000000
     18665       162  OSM       H12G          -18.1210371884       27.7818802700       -4.0746627869  MEMB      162             0.0000000000
     18666       162  OSM       C13F          -17.7644573133       25.7822218031       -3.2896141369  MEMB      162             0.0000000000
     18667       162  OSM       H13F          -16.9613491053       26.3042137829       -2.7282196035  MEMB      162             0.0000000000
     18668       162  OSM       H13G          -17.2915175458       24.9060318113       -3.7900740014  MEMB      162             0.0000000000
     18669       162  OSM       C14F          -18.7514882224       25.1658262885       -2.2792811177  MEMB      162             0.0000000000
     18670       162  OSM       H14F          -19.4483277090       24.4810611537       -2.8111800071  MEMB      162             0.0000000000
     18671       162  OSM       H14G          -19.3658874796       25.9430433455       -1.7736446859  MEMB      162             0.0000000000
     18672       162  OSM       C15F          -17.9134366033       24.3823507264       -1.2374612231  MEMB      162             0.0000000000
     18673       162  OSM       H15F          -17.5865839860       25.1095820074       -0.4607665464  MEMB      162             0.0000000000
     18674       162  OSM       H15G          -16.9872076438       24.0098344514       -1.7305905096  MEMB      162             0.0000000000
     18675       162  OSM       C16F          -18.5849084244       23.1736923900       -0.5585634798  MEMB      162             0.0000000000
     18676       162  OSM       H16F          -18.5805579968       22.3063712922       -1.2527205002  MEMB      162             0.0000000000
     18677       162  OSM       H16G          -19.6476443413       23.4141382925       -0.3499981582  MEMB      162             0.0000000000
     18678       162  OSM       C17F          -17.9059625742       22.7610417465        0.7658846249  MEMB      162             0.0000000000
     18679       162  OSM       H17F          -17.4733724272       23.6651860940        1.2532782773  MEMB      162             0.0000000000
     18680       162  OSM       H17G          -17.0603660313       22.0718630774        0.5443719101  MEMB      162             0.0000000000
     18681       162  OSM       C18F          -18.8579622769       22.0973049235        1.7676882918  MEMB      162             0.0000000000
     18682       162  OSM       H18F          -18.3135139886       21.7355845866        2.6655911426  MEMB      162             0.0000000000
     18683       162  OSM       H18G          -19.3725574750       21.2362580101        1.2992033407  MEMB      162             0.0000000000
     18684       162  OSM       H18H          -19.6284286110       22.8232941979        2.1054796021  MEMB      162             0.0000000000
     18685       163  SAPC      N              34.7569864414       -8.7344265051      -22.1955340396  MEMB      163             0.0000000000
     18686       163  SAPC      C12            33.5589512647       -8.4430200242      -21.3152929461  MEMB      163             0.0000000000
     18687       163  SAPC      H12A           32.6833164021       -8.8724006275      -21.7626053974  MEMB      163             0.0000000000
     18688       163  SAPC      H12B           33.4253572506       -7.3624288771      -21.3078009587  MEMB      163             0.0000000000
     18689       163  SAPC      C13            34.3577005402       -8.4443394392      -23.5961362286  MEMB      163             0.0000000000
     18690       163  SAPC      H13A           34.1568505484       -7.3927459094      -23.7702146704  MEMB      163             0.0000000000
     18691       163  SAPC      H13B           35.1703680329       -8.7018812584      -24.2602186147  MEMB      163             0.0000000000
     18692       163  SAPC      H13C           33.5329422087       -9.0440390967      -23.9440620785  MEMB      163             0.0000000000
     18693       163  SAPC      C14            35.9163783756       -7.8711918991      -21.7805005696  MEMB      163             0.0000000000
     18694       163  SAPC      H14A           35.8011700715       -6.8405852604      -22.0880221871  MEMB      163             0.0000000000
     18695       163  SAPC      H14B           36.0024532980       -7.8486697685      -20.6841253834  MEMB      163             0.0000000000
     18696       163  SAPC      H14C           36.8328825634       -8.2624450259      -22.1914166670  MEMB      163             0.0000000000
     18697       163  SAPC      C15            35.2157085152      -10.1540625933      -22.0888323137  MEMB      163             0.0000000000
     18698       163  SAPC      H15A           36.0843310448      -10.3260657824      -22.7213436326  MEMB      163             0.0000000000
     18699       163  SAPC      H15B           35.5083340983      -10.3170792265      -21.0511913658  MEMB      163             0.0000000000
     18700       163  SAPC      H15C           34.4487562355      -10.8614810683      -22.3580524509  MEMB      163             0.0000000000
     18701       163  SAPC      C11            33.6483754539       -8.8651154138      -19.8508051742  MEMB      163             0.0000000000
     18702       163  SAPC      H11A           33.8843854745       -9.9538415936      -19.7839638357  MEMB      163             0.0000000000
     18703       163  SAPC      H11B           32.6800845186       -8.7008691159      -19.3274539680  MEMB      163             0.0000000000
     18704       163  SAPC      P              35.5362976644       -8.4996224473      -18.0763465283  MEMB      163             0.0000000000
     18705       163  SAPC      O13            35.6065135769       -9.9736763852      -18.1472446012  MEMB      163             0.0000000000
     18706       163  SAPC      O14            36.8270721684       -7.8071437857      -18.2482174328  MEMB      163             0.0000000000
     18707       163  SAPC      O12            34.6279911845       -8.0318860107      -19.2714141972  MEMB      163             0.0000000000
     18708       163  SAPC      O11            34.7798664264       -8.0439504447      -16.7153083576  MEMB      163             0.0000000000
     18709       163  SAPC      C1             33.8055203730       -6.9954931399      -16.7680004470  MEMB      163             0.0000000000
     18710       163  SAPC      HA             34.3693136830       -6.1455039409      -17.1099735222  MEMB      163             0.0000000000
     18711       163  SAPC      HB             33.0085558119       -7.2067023590      -17.5108804187  MEMB      163             0.0000000000
     18712       163  SAPC      C2             33.1477783416       -6.3094518619      -15.4887099676  MEMB      163             0.0000000000
     18713       163  SAPC      HS             33.0077463818       -5.2409920881      -15.7898055154  MEMB      163             0.0000000000
     18714       163  SAPC      O21            33.9625940471       -6.3898205632      -14.2960317705  MEMB      163             0.0000000000
     18715       163  SAPC      C21            33.5977981603       -5.5288721665      -13.3402954806  MEMB      163             0.0000000000
     18716       163  SAPC      O22            32.7188908314       -4.6895227570      -13.4283474405  MEMB      163             0.0000000000
     18717       163  SAPC      C22            34.4065544235       -5.8318282726      -12.0771686925  MEMB      163             0.0000000000
     18718       163  SAPC      H2R            34.0677567574       -6.8234481810      -11.7116847013  MEMB      163             0.0000000000
     18719       163  SAPC      H2S            35.4734186653       -5.9105695738      -12.3674235348  MEMB      163             0.0000000000
     18720       163  SAPC      C3             31.7381173001       -6.9034979732      -15.1720596916  MEMB      163             0.0000000000
     18721       163  SAPC      HX             31.0622247868       -6.7610522327      -16.0483232089  MEMB      163             0.0000000000
     18722       163  SAPC      HY             31.2648689522       -6.3213716833      -14.3532602315  MEMB      163             0.0000000000
     18723       163  SAPC      O31            31.8666994565       -8.2756694436      -14.7538351710  MEMB      163             0.0000000000
     18724       163  SAPC      C31            31.9197328082       -9.1349931661      -15.7669407945  MEMB      163             0.0000000000
     18725       163  SAPC      O32            31.3485821847       -9.0044802349      -16.8356296469  MEMB      163             0.0000000000
     18726       163  SAPC      C32            32.9771014599      -10.2126046158      -15.4634758493  MEMB      163             0.0000000000
     18727       163  SAPC      H2X            33.9761314832       -9.8016351847      -15.6828240774  MEMB      163             0.0000000000
     18728       163  SAPC      H2Y            32.7919045370      -11.0227738730      -16.1951795956  MEMB      163             0.0000000000
     18729       163  SAPC      C23            34.2368651361       -4.7564516275      -10.9757286531  MEMB      163             0.0000000000
     18730       163  SAPC      H3R            33.1550782762       -4.5147622315      -10.8432692777  MEMB      163             0.0000000000
     18731       163  SAPC      H3S            34.7375596682       -3.8178555362      -11.3101835927  MEMB      163             0.0000000000
     18732       163  SAPC      C24            34.8219720654       -5.1853611999       -9.6149721101  MEMB      163             0.0000000000
     18733       163  SAPC      H4R            34.7760047122       -4.3080646486       -8.9298702809  MEMB      163             0.0000000000
     18734       163  SAPC      H4S            35.8965661983       -5.4521163705       -9.7313411586  MEMB      163             0.0000000000
     18735       163  SAPC      C25            34.0027652849       -6.3120162343       -9.0400041026  MEMB      163             0.0000000000
     18736       163  SAPC      H5R            32.9203845846       -6.2231967301       -9.2314204376  MEMB      163             0.0000000000
     18737       163  SAPC      C26            34.4365550316       -7.4165087494       -8.4112822732  MEMB      163             0.0000000000
     18738       163  SAPC      H6R            33.6627238790       -8.1104951927       -8.0434044277  MEMB      163             0.0000000000
     18739       163  SAPC      C27            35.8644568266       -7.8197651916       -8.1110544286  MEMB      163             0.0000000000
     18740       163  SAPC      H7R            36.4970039465       -6.9450529216       -7.8506484368  MEMB      163             0.0000000000
     18741       163  SAPC      H7S            36.3222339733       -8.2555987110       -9.0244300765  MEMB      163             0.0000000000
     18742       163  SAPC      C28            35.8915312395       -8.8977927396       -7.0548374654  MEMB      163             0.0000000000
     18743       163  SAPC      H8R            35.0524493017       -9.5989579651       -7.1233913985  MEMB      163             0.0000000000
     18744       163  SAPC      C29            36.7950721970       -9.1479913381       -6.0933659059  MEMB      163             0.0000000000
     18745       163  SAPC      H9R            36.5980585074       -9.9929898363       -5.4136741553  MEMB      163             0.0000000000
     18746       163  SAPC      C210           38.0600015417       -8.3960306908       -5.7902141851  MEMB      163             0.0000000000
     18747       163  SAPC      H10R           38.2373369858       -7.5953826167       -6.5387313299  MEMB      163             0.0000000000
     18748       163  SAPC      H10S           38.9282337359       -9.0878098951       -5.8575136036  MEMB      163             0.0000000000
     18749       163  SAPC      C211           37.9653924480       -7.8048838781       -4.4054123097  MEMB      163             0.0000000000
     18750       163  SAPC      H11R           38.6205066260       -8.2614745744       -3.6458413605  MEMB      163             0.0000000000
     18751       163  SAPC      C212           37.1192636588       -6.8257182909       -4.0260126793  MEMB      163             0.0000000000
     18752       163  SAPC      H12R           37.1541101361       -6.4626173051       -2.9910111516  MEMB      163             0.0000000000
     18753       163  SAPC      C213           36.1093056459       -6.1201905678       -4.8916263616  MEMB      163             0.0000000000
     18754       163  SAPC      H13R           36.2576827075       -6.3589315602       -5.9545575212  MEMB      163             0.0000000000
     18755       163  SAPC      H13S           36.4116384972       -5.0834923021       -4.8452214968  MEMB      163             0.0000000000
     18756       163  SAPC      C214           34.6316330716       -6.1156593462       -4.6069631862  MEMB      163             0.0000000000
     18757       163  SAPC      H14R           34.0500392190       -6.8559106011       -5.1819452606  MEMB      163             0.0000000000
     18758       163  SAPC      C215           33.9650363716       -5.3053173497       -3.7619234704  MEMB      163             0.0000000000
     18759       163  SAPC      H15R           32.8798535057       -5.4260434575       -3.7544323731  MEMB      163             0.0000000000
     18760       163  SAPC      C216           34.4687271658       -4.1903452659       -2.8585851587  MEMB      163             0.0000000000
     18761       163  SAPC      H16R           35.5247957503       -4.0363295022       -3.0956591126  MEMB      163             0.0000000000
     18762       163  SAPC      H16S           34.4561750667       -4.5696009035       -1.8110050801  MEMB      163             0.0000000000
     18763       163  SAPC      C217           33.7975946208       -2.7617962725       -2.7996663445  MEMB      163             0.0000000000
     18764       163  SAPC      H17R           34.5634691344       -1.9772917244       -2.7042146360  MEMB      163             0.0000000000
     18765       163  SAPC      H17S           33.2364690660       -2.6725321351       -1.8464258708  MEMB      163             0.0000000000
     18766       163  SAPC      C218           32.8476282976       -2.5265969067       -3.9850658518  MEMB      163             0.0000000000
     18767       163  SAPC      H18R           32.2440293467       -3.4267155789       -3.9165385597  MEMB      163             0.0000000000
     18768       163  SAPC      H18S           33.4092721059       -2.6156953978       -4.9363036314  MEMB      163             0.0000000000
     18769       163  SAPC      C219           31.8241720826       -1.3516229069       -4.0809894969  MEMB      163             0.0000000000
     18770       163  SAPC      H19R           31.0115307628       -1.6843956234       -4.7603073392  MEMB      163             0.0000000000
     18771       163  SAPC      H19S           32.2841628525       -0.5192579599       -4.6363256503  MEMB      163             0.0000000000
     18772       163  SAPC      C220           31.1772841771       -0.7736413834       -2.8115366675  MEMB      163             0.0000000000
     18773       163  SAPC      H20R           31.6420511560       -1.1877077145       -1.9020255756  MEMB      163             0.0000000000
     18774       163  SAPC      H20S           30.0999169187       -1.0078168880       -2.7570919236  MEMB      163             0.0000000000
     18775       163  SAPC      H20T           31.2653959169        0.3344597051       -2.7966599608  MEMB      163             0.0000000000
     18776       163  SAPC      C33            33.0525896435      -10.7483557204      -14.0119756578  MEMB      163             0.0000000000
     18777       163  SAPC      H3X            33.6004662788      -11.7149113292      -14.0322402982  MEMB      163             0.0000000000
     18778       163  SAPC      H3Y            32.0293052741      -10.9906868804      -13.7269465346  MEMB      163             0.0000000000
     18779       163  SAPC      C34            33.7885449608       -9.8449010858      -12.9913961259  MEMB      163             0.0000000000
     18780       163  SAPC      H4X            33.4908644051       -8.7823141241      -13.1419082999  MEMB      163             0.0000000000
     18781       163  SAPC      H4Y            34.8756778510       -9.8915312949      -13.2089565375  MEMB      163             0.0000000000
     18782       163  SAPC      C35            33.5477822907      -10.1619923111      -11.4900253906  MEMB      163             0.0000000000
     18783       163  SAPC      H5X            32.5288877075       -9.7867185521      -11.2870979770  MEMB      163             0.0000000000
     18784       163  SAPC      H5Y            34.2460403084       -9.5622989308      -10.8651976814  MEMB      163             0.0000000000
     18785       163  SAPC      C36            33.5747746396      -11.6512158491      -11.0784009953  MEMB      163             0.0000000000
     18786       163  SAPC      H6X            34.5096131145      -12.1286600293      -11.4428378584  MEMB      163             0.0000000000
     18787       163  SAPC      H6Y            32.7426087215      -12.1325046952      -11.6339010078  MEMB      163             0.0000000000
     18788       163  SAPC      C37            33.3496713482      -11.9888913686       -9.5683605393  MEMB      163             0.0000000000
     18789       163  SAPC      H7X            34.3117030060      -12.1575777306       -9.0492159443  MEMB      163             0.0000000000
     18790       163  SAPC      H7Y            32.7974258897      -12.9533503801       -9.5371707591  MEMB      163             0.0000000000
     18791       163  SAPC      C38            32.5546312667      -10.9413642604       -8.7587032975  MEMB      163             0.0000000000
     18792       163  SAPC      H8X            31.8573465752      -10.5407042824       -9.5021498559  MEMB      163             0.0000000000
     18793       163  SAPC      H8Y            33.2207426921      -10.1191536746       -8.4361009451  MEMB      163             0.0000000000
     18794       163  SAPC      C39            31.6393824001      -11.4104738979       -7.5932117253  MEMB      163             0.0000000000
     18795       163  SAPC      H9X            31.0318090144      -12.2610265651       -7.9808875111  MEMB      163             0.0000000000
     18796       163  SAPC      H9Y            30.9219116701      -10.6316923228       -7.3218097876  MEMB      163             0.0000000000
     18797       163  SAPC      C310           32.3355060023      -11.8943113915       -6.3032692074  MEMB      163             0.0000000000
     18798       163  SAPC      H10X           32.8614917512      -12.6448465885       -6.8760858625  MEMB      163             0.0000000000
     18799       163  SAPC      H10Y           31.6300828237      -12.4384010303       -5.6459622348  MEMB      163             0.0000000000
     18800       163  SAPC      C311           33.1546573242      -10.8753025374       -5.4383346173  MEMB      163             0.0000000000
     18801       163  SAPC      H11X           32.3703564058      -10.4537823651       -4.7798185741  MEMB      163             0.0000000000
     18802       163  SAPC      H11Y           33.5185529783      -10.0714518109       -6.0978453243  MEMB      163             0.0000000000
     18803       163  SAPC      C312           34.2670739547      -11.1732556155       -4.3660097953  MEMB      163             0.0000000000
     18804       163  SAPC      H12X           35.1656374838      -11.6628482614       -4.7738418337  MEMB      163             0.0000000000
     18805       163  SAPC      H12Y           33.8477348540      -11.8025707339       -3.5572188544  MEMB      163             0.0000000000
     18806       163  SAPC      C313           34.6586061153       -9.8613517713       -3.6361945624  MEMB      163             0.0000000000
     18807       163  SAPC      H13X           33.7487237775       -9.6289237854       -3.0816688997  MEMB      163             0.0000000000
     18808       163  SAPC      H13Y           34.8528616796       -9.0511333779       -4.3646842062  MEMB      163             0.0000000000
     18809       163  SAPC      C314           35.6796877921       -9.7888579625       -2.4873441171  MEMB      163             0.0000000000
     18810       163  SAPC      H14X           36.7068224995       -9.7784984866       -2.9046493931  MEMB      163             0.0000000000
     18811       163  SAPC      H14Y           35.5632452725      -10.6520818481       -1.7972439669  MEMB      163             0.0000000000
     18812       163  SAPC      C315           35.5049741381       -8.4860228345       -1.6704190776  MEMB      163             0.0000000000
     18813       163  SAPC      H15X           34.5633227562       -8.5242816623       -1.0862797551  MEMB      163             0.0000000000
     18814       163  SAPC      H15Y           35.3605480688       -7.6422669289       -2.3758573515  MEMB      163             0.0000000000
     18815       163  SAPC      C316           36.7173423439       -8.1755912137       -0.7723474489  MEMB      163             0.0000000000
     18816       163  SAPC      H16X           37.2575600456       -7.2832604899       -1.1565441627  MEMB      163             0.0000000000
     18817       163  SAPC      H16Y           37.4271415973       -9.0311577763       -0.8180569042  MEMB      163             0.0000000000
     18818       163  SAPC      C317           36.3849905550       -7.8938687957        0.6956290121  MEMB      163             0.0000000000
     18819       163  SAPC      H17X           37.3393988244       -7.7344141510        1.2441376546  MEMB      163             0.0000000000
     18820       163  SAPC      H17Y           35.9136567530       -8.7943270633        1.1322299072  MEMB      163             0.0000000000
     18821       163  SAPC      C318           35.4796885490       -6.6801579094        0.9097147301  MEMB      163             0.0000000000
     18822       163  SAPC      H18X           35.4131846658       -6.4370962396        1.9927676892  MEMB      163             0.0000000000
     18823       163  SAPC      H18Y           34.4531208938       -6.8816637636        0.5353321778  MEMB      163             0.0000000000
     18824       163  SAPC      H18Z           35.8865879819       -5.7979761328        0.3701503331  MEMB      163             0.0000000000
     18825       164  CHL1      C3            -12.3555955660      -32.2373361831      -17.4851677660  MEMB      164             0.0000000000
     18826       164  CHL1      H3            -12.0037854765      -33.2926023896      -17.4740029507  MEMB      164             0.0000000000
     18827       164  CHL1      O3            -12.6668936706      -31.9064364805      -18.8227675912  MEMB      164             0.0000000000
     18828       164  CHL1      H3'           -11.9839341745      -31.2876751085      -19.1375018963  MEMB      164             0.0000000000
     18829       164  CHL1      C4            -13.6474718280      -32.1318798952      -16.6778117512  MEMB      164             0.0000000000
     18830       164  CHL1      H4A           -14.1177018367      -31.1428647002      -16.8508121209  MEMB      164             0.0000000000
     18831       164  CHL1      H4B           -14.3625423166      -32.8790100568      -17.0933029187  MEMB      164             0.0000000000
     18832       164  CHL1      C5            -13.4107862395      -32.3274181875      -15.2062326452  MEMB      164             0.0000000000
     18833       164  CHL1      C6            -14.0214903514      -33.3136980148      -14.5396859286  MEMB      164             0.0000000000
     18834       164  CHL1      H6            -14.7138502473      -33.9851775927      -15.0713618374  MEMB      164             0.0000000000
     18835       164  CHL1      C7            -13.9883621174      -33.4053008282      -13.0477652628  MEMB      164             0.0000000000
     18836       164  CHL1      H7A           -15.0029695834      -33.6218918928      -12.6518807466  MEMB      164             0.0000000000
     18837       164  CHL1      H7B           -13.2970655991      -34.2216475578      -12.7480105177  MEMB      164             0.0000000000
     18838       164  CHL1      C8            -13.4979837449      -32.0959087684      -12.3864051462  MEMB      164             0.0000000000
     18839       164  CHL1      H8            -14.2643250123      -31.3002541475      -12.5261040354  MEMB      164             0.0000000000
     18840       164  CHL1      C14           -13.3373328108      -32.3563167383      -10.8982038132  MEMB      164             0.0000000000
     18841       164  CHL1      H14           -12.7180974066      -33.2869796166      -10.8172312152  MEMB      164             0.0000000000
     18842       164  CHL1      C15           -14.6187038331      -32.6366117276      -10.0948319381  MEMB      164             0.0000000000
     18843       164  CHL1      H15A          -15.3646879495      -31.8328457467      -10.2885014294  MEMB      164             0.0000000000
     18844       164  CHL1      H15B          -15.0892257865      -33.6069273390      -10.3359903016  MEMB      164             0.0000000000
     18845       164  CHL1      C16           -14.1217343252      -32.5626445878       -8.6448962974  MEMB      164             0.0000000000
     18846       164  CHL1      H16A          -14.8085693542      -31.9083065728       -8.0657853199  MEMB      164             0.0000000000
     18847       164  CHL1      H16B          -14.1088994137      -33.5666535107       -8.1756427988  MEMB      164             0.0000000000
     18848       164  CHL1      C17           -12.6739286630      -31.9559122934       -8.6986902367  MEMB      164             0.0000000000
     18849       164  CHL1      H17           -11.9691193116      -32.8205411274       -8.7039096389  MEMB      164             0.0000000000
     18850       164  CHL1      C13           -12.5785253184      -31.3072114706      -10.0988849563  MEMB      164             0.0000000000
     18851       164  CHL1      C18           -13.3663774917      -29.9862309131      -10.0527984620  MEMB      164             0.0000000000
     18852       164  CHL1      H18A          -12.7107234122      -29.1786776989       -9.6625867009  MEMB      164             0.0000000000
     18853       164  CHL1      H18B          -13.7033291753      -29.7103008036      -11.0712248408  MEMB      164             0.0000000000
     18854       164  CHL1      H18C          -14.2653066349      -30.0433941313       -9.4081224518  MEMB      164             0.0000000000
     18855       164  CHL1      C12           -11.2105270580      -31.1099287218      -10.7874821084  MEMB      164             0.0000000000
     18856       164  CHL1      H12A          -10.5557326521      -30.3941527395      -10.2610342411  MEMB      164             0.0000000000
     18857       164  CHL1      H12B          -10.6952471758      -32.0848365885      -10.8264749812  MEMB      164             0.0000000000
     18858       164  CHL1      C11           -11.3825464252      -30.6399656954      -12.2453212195  MEMB      164             0.0000000000
     18859       164  CHL1      H11A          -11.8780287908      -29.6490898408      -12.2405183072  MEMB      164             0.0000000000
     18860       164  CHL1      H11B          -10.3787284538      -30.5091782774      -12.7035207029  MEMB      164             0.0000000000
     18861       164  CHL1      C9            -12.1903796700      -31.6755266859      -13.0691760533  MEMB      164             0.0000000000
     18862       164  CHL1      H9            -11.5497072772      -32.5932947241      -13.0531594869  MEMB      164             0.0000000000
     18863       164  CHL1      C10           -12.4185293397      -31.3332735509      -14.5694216268  MEMB      164             0.0000000000
     18864       164  CHL1      C19           -12.9466423989      -29.8776105176      -14.6649258444  MEMB      164             0.0000000000
     18865       164  CHL1      H19A          -13.1508073506      -29.5953380667      -15.7183941920  MEMB      164             0.0000000000
     18866       164  CHL1      H19B          -13.8873808478      -29.7601283834      -14.0898515522  MEMB      164             0.0000000000
     18867       164  CHL1      H19C          -12.1991827958      -29.1545062152      -14.2821994331  MEMB      164             0.0000000000
     18868       164  CHL1      C1            -11.1002352114      -31.4900474756      -15.3865993293  MEMB      164             0.0000000000
     18869       164  CHL1      H1A           -10.3374623123      -30.7799837274      -15.0050319184  MEMB      164             0.0000000000
     18870       164  CHL1      H1B           -10.7198784860      -32.5154580066      -15.2066601670  MEMB      164             0.0000000000
     18871       164  CHL1      C2            -11.2435322563      -31.3339903203      -16.9207395966  MEMB      164             0.0000000000
     18872       164  CHL1      H2A           -10.2806491311      -31.6100767175      -17.4066070784  MEMB      164             0.0000000000
     18873       164  CHL1      H2B           -11.4608712437      -30.2734397893      -17.1603576376  MEMB      164             0.0000000000
     18874       164  CHL1      C20           -12.3594603267      -31.1238268621       -7.4511037597  MEMB      164             0.0000000000
     18875       164  CHL1      H20           -13.0509950600      -30.2499809392       -7.4033565038  MEMB      164             0.0000000000
     18876       164  CHL1      C21           -10.9162644259      -30.5801739594       -7.4900193614  MEMB      164             0.0000000000
     18877       164  CHL1      H21A          -10.7642099574      -29.9177734106       -8.3592920842  MEMB      164             0.0000000000
     18878       164  CHL1      H21B          -10.1888303177      -31.4162928869       -7.5219586126  MEMB      164             0.0000000000
     18879       164  CHL1      H21C          -10.6995594041      -29.9568739056       -6.5996742608  MEMB      164             0.0000000000
     18880       164  CHL1      C22           -12.5904915503      -31.9584479313       -6.1667306847  MEMB      164             0.0000000000
     18881       164  CHL1      H22A          -13.6716354776      -32.2191635919       -6.0886427883  MEMB      164             0.0000000000
     18882       164  CHL1      H22B          -12.0213288619      -32.9117730092       -6.2178382019  MEMB      164             0.0000000000
     18883       164  CHL1      C23           -12.2173055839      -31.2073582993       -4.8863553722  MEMB      164             0.0000000000
     18884       164  CHL1      H23A          -11.1330860691      -30.9691593761       -4.8433999531  MEMB      164             0.0000000000
     18885       164  CHL1      H23B          -12.7938626697      -30.2539295435       -4.8777140103  MEMB      164             0.0000000000
     18886       164  CHL1      C24           -12.5699858455      -31.9929987312       -3.6331265971  MEMB      164             0.0000000000
     18887       164  CHL1      H24A          -13.5290820208      -32.5290487998       -3.8156245955  MEMB      164             0.0000000000
     18888       164  CHL1      H24B          -11.7939516681      -32.7574525204       -3.4172651268  MEMB      164             0.0000000000
     18889       164  CHL1      C25           -12.7427750950      -31.0683151580       -2.4243598123  MEMB      164             0.0000000000
     18890       164  CHL1      H25           -13.3074139589      -30.1670580472       -2.7629371390  MEMB      164             0.0000000000
     18891       164  CHL1      C26           -13.6064048653      -31.7676108245       -1.3828752603  MEMB      164             0.0000000000
     18892       164  CHL1      H26A          -14.4121467005      -32.3492993345       -1.8658865089  MEMB      164             0.0000000000
     18893       164  CHL1      H26B          -12.9884461269      -32.4724940503       -0.7947667292  MEMB      164             0.0000000000
     18894       164  CHL1      H26C          -14.0827165923      -31.0358323619       -0.7052963480  MEMB      164             0.0000000000
     18895       164  CHL1      C27           -11.3882148024      -30.6230588979       -1.8483020598  MEMB      164             0.0000000000
     18896       164  CHL1      H27A          -10.8324180509      -30.0130692922       -2.5905069252  MEMB      164             0.0000000000
     18897       164  CHL1      H27B          -11.5243924029      -30.0238001799       -0.9240117748  MEMB      164             0.0000000000
     18898       164  CHL1      H27C          -10.7641759678      -31.5082961845       -1.6054763823  MEMB      164             0.0000000000
     18899       165  SOPE      N              14.7911347499       28.7012187699      -20.2281177547  MEMB      165             0.0000000000
     18900       165  SOPE      HN1            13.9420292972       29.2416006232      -20.4906252077  MEMB      165             0.0000000000
     18901       165  SOPE      HN2            15.1643915262       28.3046264447      -21.1118112571  MEMB      165             0.0000000000
     18902       165  SOPE      HN3            14.5522138767       27.9173586615      -19.5833892441  MEMB      165             0.0000000000
     18903       165  SOPE      C12            15.7834097181       29.6758627738      -19.6538807647  MEMB      165             0.0000000000
     18904       165  SOPE      H12A           16.5029451232       29.1078851085      -19.0261884087  MEMB      165             0.0000000000
     18905       165  SOPE      H12B           15.2292777126       30.3907336884      -19.0198371051  MEMB      165             0.0000000000
     18906       165  SOPE      C11            16.5362334859       30.4214636667      -20.7723818401  MEMB      165             0.0000000000
     18907       165  SOPE      H11A           17.2288185864       29.6642970830      -21.1909831103  MEMB      165             0.0000000000
     18908       165  SOPE      H11B           17.1620151092       31.2411897607      -20.3552682267  MEMB      165             0.0000000000
     18909       165  SOPE      P              14.6787573486       32.0711992918      -21.8688176198  MEMB      165             0.0000000000
     18910       165  SOPE      O13            13.3825832499       31.5001190740      -22.2973590959  MEMB      165             0.0000000000
     18911       165  SOPE      O14            15.2115204740       33.2254762347      -22.6130733108  MEMB      165             0.0000000000
     18912       165  SOPE      O12            15.7267207253       30.8817139576      -21.8409342672  MEMB      165             0.0000000000
     18913       165  SOPE      O11            14.6571927592       32.4717319014      -20.3235335256  MEMB      165             0.0000000000
     18914       165  SOPE      C1             15.6564579158       33.4762626881      -19.9890625010  MEMB      165             0.0000000000
     18915       165  SOPE      HA             15.3231657393       34.4739997659      -20.3645548056  MEMB      165             0.0000000000
     18916       165  SOPE      HB             16.6433841214       33.2511987348      -20.4640982179  MEMB      165             0.0000000000
     18917       165  SOPE      C2             15.8592378815       33.6324963965      -18.4534469215  MEMB      165             0.0000000000
     18918       165  SOPE      HS             16.0779558520       34.7054169589      -18.2438173101  MEMB      165             0.0000000000
     18919       165  SOPE      O21            16.9485248576       32.7951779223      -18.0207730784  MEMB      165             0.0000000000
     18920       165  SOPE      C21            17.1305893320       32.8777263113      -16.6946594728  MEMB      165             0.0000000000
     18921       165  SOPE      O22            16.9658888974       33.8953632604      -16.0454564724  MEMB      165             0.0000000000
     18922       165  SOPE      C22            17.6217555302       31.5379993105      -16.1662505551  MEMB      165             0.0000000000
     18923       165  SOPE      H2R            18.3912040605       31.7405713899      -15.3918166407  MEMB      165             0.0000000000
     18924       165  SOPE      H2S            18.0949534775       30.9963981604      -17.0061359166  MEMB      165             0.0000000000
     18925       165  SOPE      C3             14.5529162542       33.1506947956      -17.7633995414  MEMB      165             0.0000000000
     18926       165  SOPE      HX             14.6048496427       32.0613847088      -17.9820937690  MEMB      165             0.0000000000
     18927       165  SOPE      HY             13.6803535204       33.5544404460      -18.2916571507  MEMB      165             0.0000000000
     18928       165  SOPE      O31            14.4281223913       33.3996525663      -16.3447722990  MEMB      165             0.0000000000
     18929       165  SOPE      C31            13.6770030231       32.4561810240      -15.7577440066  MEMB      165             0.0000000000
     18930       165  SOPE      O32            13.0691500991       31.6013639926      -16.3746616411  MEMB      165             0.0000000000
     18931       165  SOPE      C32            13.7453117231       32.5970877264      -14.2426867960  MEMB      165             0.0000000000
     18932       165  SOPE      H2X            13.2285442273       33.5216310641      -13.9185679581  MEMB      165             0.0000000000
     18933       165  SOPE      H2Y            14.7828855966       32.7362812136      -13.9642089633  MEMB      165             0.0000000000
     18934       165  SOPE      C23            16.5796795110       30.6127413250      -15.5186273049  MEMB      165             0.0000000000
     18935       165  SOPE      H3R            16.0688422219       30.0277484082      -16.3137370642  MEMB      165             0.0000000000
     18936       165  SOPE      H3S            15.8079481333       31.1799443359      -14.9755574301  MEMB      165             0.0000000000
     18937       165  SOPE      C24            17.2470349149       29.6746658536      -14.5036106610  MEMB      165             0.0000000000
     18938       165  SOPE      H4R            16.5649718921       28.8209706092      -14.3020427385  MEMB      165             0.0000000000
     18939       165  SOPE      H4S            18.1639741651       29.2469969011      -14.9771617577  MEMB      165             0.0000000000
     18940       165  SOPE      C25            17.6829143732       30.3253604834      -13.1629849768  MEMB      165             0.0000000000
     18941       165  SOPE      H5R            17.7982946445       29.4844060236      -12.4414397993  MEMB      165             0.0000000000
     18942       165  SOPE      H5S            18.6991440425       30.7620572704      -13.2844601218  MEMB      165             0.0000000000
     18943       165  SOPE      C26            16.7624793697       31.3894797908      -12.5143631232  MEMB      165             0.0000000000
     18944       165  SOPE      H6R            15.6992466536       31.0949120980      -12.5277850977  MEMB      165             0.0000000000
     18945       165  SOPE      H6S            17.0754281243       31.4581613858      -11.4509320512  MEMB      165             0.0000000000
     18946       165  SOPE      C27            17.0014740437       32.8223393971      -12.9994925625  MEMB      165             0.0000000000
     18947       165  SOPE      H7R            18.0984928047       32.8714114821      -13.1074371119  MEMB      165             0.0000000000
     18948       165  SOPE      H7S            16.6350114845       33.0030137233      -14.0132592811  MEMB      165             0.0000000000
     18949       165  SOPE      C28            16.5600591094       33.9418663792      -12.0223545487  MEMB      165             0.0000000000
     18950       165  SOPE      H8R            16.8887911759       33.6275830053      -11.0071596656  MEMB      165             0.0000000000
     18951       165  SOPE      H8S            17.1792987277       34.8217463938      -12.2918144696  MEMB      165             0.0000000000
     18952       165  SOPE      C29            15.1385351249       34.4535731262      -11.9949939266  MEMB      165             0.0000000000
     18953       165  SOPE      H91            14.8851693566       35.1491725584      -12.8099364002  MEMB      165             0.0000000000
     18954       165  SOPE      C210           14.1867906207       34.1202928533      -11.1052779702  MEMB      165             0.0000000000
     18955       165  SOPE      H101           13.1875097683       34.5815364782      -11.1731071330  MEMB      165             0.0000000000
     18956       165  SOPE      C211           14.3810103050       33.1549885455       -9.9701445293  MEMB      165             0.0000000000
     18957       165  SOPE      H11R           15.1628713369       32.4012618286      -10.2182442590  MEMB      165             0.0000000000
     18958       165  SOPE      H11S           13.4432667082       32.5771128783       -9.8040550986  MEMB      165             0.0000000000
     18959       165  SOPE      C212           14.7781671491       33.8134484080       -8.6399422802  MEMB      165             0.0000000000
     18960       165  SOPE      H12R           13.9473473848       34.4748129306       -8.2996935250  MEMB      165             0.0000000000
     18961       165  SOPE      H12S           15.6869128209       34.4465960003       -8.7625177678  MEMB      165             0.0000000000
     18962       165  SOPE      C213           15.0412217087       32.7322379346       -7.5825363126  MEMB      165             0.0000000000
     18963       165  SOPE      H13R           16.0587014898       32.3029150851       -7.7197536326  MEMB      165             0.0000000000
     18964       165  SOPE      H13S           14.3070243784       31.9069882231       -7.7379380246  MEMB      165             0.0000000000
     18965       165  SOPE      C214           14.8551764658       33.2321591476       -6.1519611019  MEMB      165             0.0000000000
     18966       165  SOPE      H14R           13.8169742743       33.6299578987       -6.0620348860  MEMB      165             0.0000000000
     18967       165  SOPE      H14S           15.5509331807       34.0708915516       -5.9282532756  MEMB      165             0.0000000000
     18968       165  SOPE      C215           15.0277215385       32.1169563663       -5.1116081434  MEMB      165             0.0000000000
     18969       165  SOPE      H15R           16.1099685685       31.9130703164       -4.9571581141  MEMB      165             0.0000000000
     18970       165  SOPE      H15S           14.5439277640       31.1824137705       -5.4721332230  MEMB      165             0.0000000000
     18971       165  SOPE      C216           14.3731753347       32.5308995892       -3.7960412705  MEMB      165             0.0000000000
     18972       165  SOPE      H16R           13.2745824007       32.6170990802       -3.9552533493  MEMB      165             0.0000000000
     18973       165  SOPE      H16S           14.7760483383       33.5341833055       -3.5500361466  MEMB      165             0.0000000000
     18974       165  SOPE      C217           14.6527468421       31.6215502545       -2.6042890017  MEMB      165             0.0000000000
     18975       165  SOPE      H17R           15.7559120939       31.5635239673       -2.4680863451  MEMB      165             0.0000000000
     18976       165  SOPE      H17S           14.2650503133       30.5991001035       -2.8162457107  MEMB      165             0.0000000000
     18977       165  SOPE      C218           14.0306445236       32.1534040241       -1.3148206851  MEMB      165             0.0000000000
     18978       165  SOPE      H18R           14.4384978950       33.1549565896       -1.0603730918  MEMB      165             0.0000000000
     18979       165  SOPE      H18S           14.2461466879       31.4740673401       -0.4659049172  MEMB      165             0.0000000000
     18980       165  SOPE      H18T           12.9286981794       32.2435665271       -1.4267149191  MEMB      165             0.0000000000
     18981       165  SOPE      C33            13.2087322683       31.3862639931      -13.4445354953  MEMB      165             0.0000000000
     18982       165  SOPE      H3X            12.1277082607       31.3526525029      -13.6426449037  MEMB      165             0.0000000000
     18983       165  SOPE      H3Y            13.3676181316       31.5417117776      -12.3523392164  MEMB      165             0.0000000000
     18984       165  SOPE      C34            13.5879827481       29.9479967648      -13.7988666525  MEMB      165             0.0000000000
     18985       165  SOPE      H4X            14.6284510541       29.6697406046      -13.5521030316  MEMB      165             0.0000000000
     18986       165  SOPE      H4Y            13.4613668668       29.7654236113      -14.8868449087  MEMB      165             0.0000000000
     18987       165  SOPE      C35            12.5829835399       29.0459541312      -13.0563517362  MEMB      165             0.0000000000
     18988       165  SOPE      H5X            11.9832659164       28.5103658062      -13.8167223895  MEMB      165             0.0000000000
     18989       165  SOPE      H5Y            11.8326729807       29.6645022585      -12.5206806829  MEMB      165             0.0000000000
     18990       165  SOPE      C36            13.2145673901       28.0668940630      -12.0644145931  MEMB      165             0.0000000000
     18991       165  SOPE      H6X            13.9067776464       27.3964992159      -12.6234234496  MEMB      165             0.0000000000
     18992       165  SOPE      H6Y            12.4058171290       27.4338134330      -11.6370327191  MEMB      165             0.0000000000
     18993       165  SOPE      C37            13.9902946934       28.7593115013      -10.9388266743  MEMB      165             0.0000000000
     18994       165  SOPE      H7X            13.5830099827       28.4371333500       -9.9561503625  MEMB      165             0.0000000000
     18995       165  SOPE      H7Y            13.8411934628       29.8589775206      -11.0164276902  MEMB      165             0.0000000000
     18996       165  SOPE      C38            15.4846954330       28.4262698836      -11.0050431645  MEMB      165             0.0000000000
     18997       165  SOPE      H8X            15.8743659752       28.6808755159      -12.0132270354  MEMB      165             0.0000000000
     18998       165  SOPE      H8Y            15.5960970957       27.3255795189      -10.8819777253  MEMB      165             0.0000000000
     18999       165  SOPE      C39            16.3151005861       29.1261501874       -9.9250419850  MEMB      165             0.0000000000
     19000       165  SOPE      H9X            15.7407825834       29.0824224037       -8.9747890429  MEMB      165             0.0000000000
     19001       165  SOPE      H9Y            16.4357336575       30.2047866224      -10.1254148287  MEMB      165             0.0000000000
     19002       165  SOPE      C310           17.6803737792       28.4556105243       -9.7236828038  MEMB      165             0.0000000000
     19003       165  SOPE      H10X           18.4999755461       29.0625564611      -10.1747825418  MEMB      165             0.0000000000
     19004       165  SOPE      H10Y           17.6796397571       27.4748332347      -10.2511787966  MEMB      165             0.0000000000
     19005       165  SOPE      C311           17.9319943387       28.1993667234       -8.2379673793  MEMB      165             0.0000000000
     19006       165  SOPE      H11X           16.9893176433       27.8494670369       -7.7619803371  MEMB      165             0.0000000000
     19007       165  SOPE      H11Y           18.2002041209       29.1680305376       -7.7587318938  MEMB      165             0.0000000000
     19008       165  SOPE      C312           19.0128058218       27.1510848689       -7.9552021361  MEMB      165             0.0000000000
     19009       165  SOPE      H12X           19.9228193926       27.4286130760       -8.5391993059  MEMB      165             0.0000000000
     19010       165  SOPE      H12Y           18.6922354685       26.1406634507       -8.2803433493  MEMB      165             0.0000000000
     19011       165  SOPE      C313           19.3957214777       27.1653254937       -6.4732554414  MEMB      165             0.0000000000
     19012       165  SOPE      H13X           19.5284174613       28.2424279207       -6.2621701920  MEMB      165             0.0000000000
     19013       165  SOPE      H13Y           20.3563735432       26.6345109690       -6.2982537765  MEMB      165             0.0000000000
     19014       165  SOPE      C314           18.3591418447       26.7214688600       -5.4410327802  MEMB      165             0.0000000000
     19015       165  SOPE      H14X           18.2627992784       25.6146522176       -5.4552033670  MEMB      165             0.0000000000
     19016       165  SOPE      H14Y           17.3670028715       27.1613185303       -5.6848865358  MEMB      165             0.0000000000
     19017       165  SOPE      C315           18.7545564751       27.1937251398       -4.0277255991  MEMB      165             0.0000000000
     19018       165  SOPE      H15X           19.7520859853       26.7860289433       -3.7504309386  MEMB      165             0.0000000000
     19019       165  SOPE      H15Y           18.0175227661       26.7549767679       -3.3236912366  MEMB      165             0.0000000000
     19020       165  SOPE      C316           18.7798547526       28.7270376927       -3.8589241873  MEMB      165             0.0000000000
     19021       165  SOPE      H16X           17.9328678229       29.1815017167       -4.4196000820  MEMB      165             0.0000000000
     19022       165  SOPE      H16Y           19.7105217124       29.1581457123       -4.2817267247  MEMB      165             0.0000000000
     19023       165  SOPE      C317           18.6729263907       29.1634903855       -2.3990616584  MEMB      165             0.0000000000
     19024       165  SOPE      H17X           18.9090887221       30.2503870503       -2.3477262333  MEMB      165             0.0000000000
     19025       165  SOPE      H17Y           19.4356140047       28.6265116657       -1.7903577286  MEMB      165             0.0000000000
     19026       165  SOPE      C318           17.2656439381       28.9398002618       -1.8460982806  MEMB      165             0.0000000000
     19027       165  SOPE      H18X           16.5651874600       29.6434908025       -2.3407917341  MEMB      165             0.0000000000
     19028       165  SOPE      H18Y           17.2350169316       29.1020702831       -0.7490657134  MEMB      165             0.0000000000
     19029       165  SOPE      H18Z           16.9019314833       27.9143590643       -2.0610853398  MEMB      165             0.0000000000
     19030       166  OSM       N              -9.6958697284       35.0182473962      -20.7945772519  MEMB      166             0.0000000000
     19031       166  OSM       C15           -10.7896971796       36.0239075342      -20.8233134319  MEMB      166             0.0000000000
     19032       166  OSM       H15A          -10.9776876157       36.4525381761      -19.8525276404  MEMB      166             0.0000000000
     19033       166  OSM       H15B          -11.7053827088       35.5562793171      -21.2075162044  MEMB      166             0.0000000000
     19034       166  OSM       H15C          -10.5411561856       36.8335713107      -21.5077607923  MEMB      166             0.0000000000
     19035       166  OSM       C14            -8.4723166044       35.5402216230      -20.1322073310  MEMB      166             0.0000000000
     19036       166  OSM       H14A           -7.9877838083       36.2994669462      -20.7313574674  MEMB      166             0.0000000000
     19037       166  OSM       H14B           -7.7618919314       34.7195964513      -20.0215915036  MEMB      166             0.0000000000
     19038       166  OSM       H14C           -8.6814711926       35.9364226772      -19.1438194339  MEMB      166             0.0000000000
     19039       166  OSM       C13           -10.1723139638       33.8123749478      -20.0528650681  MEMB      166             0.0000000000
     19040       166  OSM       H13A          -10.1208035622       33.9592636492      -18.9866131431  MEMB      166             0.0000000000
     19041       166  OSM       H13B           -9.5506237926       32.9587215582      -20.3370393471  MEMB      166             0.0000000000
     19042       166  OSM       H13C          -11.1893907470       33.5359430183      -20.3150708030  MEMB      166             0.0000000000
     19043       166  OSM       C12            -9.3546155836       34.5864372235      -22.2210028787  MEMB      166             0.0000000000
     19044       166  OSM       H12A           -9.3837868358       35.4541449221      -22.8649802495  MEMB      166             0.0000000000
     19045       166  OSM       H12B          -10.1609179979       33.9318764787      -22.5513146403  MEMB      166             0.0000000000
     19046       166  OSM       C11            -8.0230154868       33.8229743968      -22.4634911231  MEMB      166             0.0000000000
     19047       166  OSM       H11A           -7.1456317918       34.4156744995      -22.1233470737  MEMB      166             0.0000000000
     19048       166  OSM       H11B           -7.9205297495       33.6653500105      -23.5611494847  MEMB      166             0.0000000000
     19049       166  OSM       P              -6.8909688117       31.7248282275      -21.2205610567  MEMB      166             0.0000000000
     19050       166  OSM       O13            -7.4226282786       30.4275768347      -20.7696602917  MEMB      166             0.0000000000
     19051       166  OSM       O14            -5.7505713773       31.6664140679      -22.1764134822  MEMB      166             0.0000000000
     19052       166  OSM       O11            -6.4293462283       32.6293666354      -19.9890839405  MEMB      166             0.0000000000
     19053       166  OSM       O12            -8.0825675061       32.5567581800      -21.8448945967  MEMB      166             0.0000000000
     19054       166  OSM       C1S            -7.0792558871       32.4341474748      -18.7159462372  MEMB      166             0.0000000000
     19055       166  OSM       H1S            -7.3059233945       31.3591238282      -18.5119383071  MEMB      166             0.0000000000
     19056       166  OSM       H1T            -8.0352784233       32.9923249885      -18.6812662496  MEMB      166             0.0000000000
     19057       166  OSM       NF             -7.0261900339       32.9319638925      -16.2785190206  MEMB      166             0.0000000000
     19058       166  OSM       HNF            -7.2866448514       33.8017211425      -15.8777009382  MEMB      166             0.0000000000
     19059       166  OSM       C2S            -6.2278539035       32.9371601981      -17.5087328295  MEMB      166             0.0000000000
     19060       166  OSM       H2S            -5.3713456038       32.2442958180      -17.3810008780  MEMB      166             0.0000000000
     19061       166  OSM       C3S            -5.6672679652       34.3537034992      -17.8194119166  MEMB      166             0.0000000000
     19062       166  OSM       H3S            -6.5000261729       35.0448234828      -18.0705021466  MEMB      166             0.0000000000
     19063       166  OSM       O3             -4.7656198361       34.4168521149      -18.9191439347  MEMB      166             0.0000000000
     19064       166  OSM       HO3            -5.0403209975       33.6731270218      -19.4760599415  MEMB      166             0.0000000000
     19065       166  OSM       C4S            -4.8738417440       34.9038379836      -16.6762998893  MEMB      166             0.0000000000
     19066       166  OSM       H4S            -3.8249419191       34.5826622925      -16.6867601750  MEMB      166             0.0000000000
     19067       166  OSM       C5S            -5.3280193117       35.7139291262      -15.7004392292  MEMB      166             0.0000000000
     19068       166  OSM       H5S            -6.3946325676       35.9795673347      -15.6813063905  MEMB      166             0.0000000000
     19069       166  OSM       C6S            -4.5235507495       36.2814264728      -14.5640188763  MEMB      166             0.0000000000
     19070       166  OSM       H6S            -4.4278634753       37.3808080897      -14.7082978531  MEMB      166             0.0000000000
     19071       166  OSM       H6T            -3.4771218854       35.9262752091      -14.5942329167  MEMB      166             0.0000000000
     19072       166  OSM       C7S            -5.0921849984       36.0744751250      -13.1393242780  MEMB      166             0.0000000000
     19073       166  OSM       H7S            -5.6716174334       36.9683984945      -12.8563851795  MEMB      166             0.0000000000
     19074       166  OSM       H7T            -4.2244577873       36.0819560696      -12.4390491204  MEMB      166             0.0000000000
     19075       166  OSM       C8S            -5.9184129774       34.7914649128      -12.8895847270  MEMB      166             0.0000000000
     19076       166  OSM       H8S            -5.4506891184       33.9604052268      -13.4673721353  MEMB      166             0.0000000000
     19077       166  OSM       H8T            -6.9590144054       34.8811790127      -13.2666542645  MEMB      166             0.0000000000
     19078       166  OSM       C9S            -5.9118797505       34.3671254983      -11.4050552176  MEMB      166             0.0000000000
     19079       166  OSM       H9S            -5.0337335698       34.8163798911      -10.8938941752  MEMB      166             0.0000000000
     19080       166  OSM       H9T            -5.8205958329       33.2589227733      -11.3677643223  MEMB      166             0.0000000000
     19081       166  OSM       C10S           -7.1554935627       34.7174106255      -10.5981345974  MEMB      166             0.0000000000
     19082       166  OSM       H10S           -7.9484313119       34.0338809260      -10.9508822533  MEMB      166             0.0000000000
     19083       166  OSM       H10T           -7.4333346752       35.7620823088      -10.8238869209  MEMB      166             0.0000000000
     19084       166  OSM       C11S           -7.0218139813       34.6023846942       -9.0665619164  MEMB      166             0.0000000000
     19085       166  OSM       H11S           -7.9711643349       34.9502169408       -8.6028193992  MEMB      166             0.0000000000
     19086       166  OSM       H11T           -6.2244100608       35.3109847620       -8.7396782662  MEMB      166             0.0000000000
     19087       166  OSM       C12S           -6.6853641759       33.1957966117       -8.5364883294  MEMB      166             0.0000000000
     19088       166  OSM       H12S           -5.7003788363       33.3070226972       -8.0286356525  MEMB      166             0.0000000000
     19089       166  OSM       H12T           -6.5862670500       32.4778163669       -9.3751938088  MEMB      166             0.0000000000
     19090       166  OSM       C13S           -7.6055588438       32.6023790909       -7.4569549942  MEMB      166             0.0000000000
     19091       166  OSM       H13S           -7.3321530533       31.5423145966       -7.2591285043  MEMB      166             0.0000000000
     19092       166  OSM       H13T           -8.6649796899       32.6411342867       -7.7676558190  MEMB      166             0.0000000000
     19093       166  OSM       C14S           -7.4132011693       33.3892002983       -6.1742718402  MEMB      166             0.0000000000
     19094       166  OSM       H14S           -7.7150066425       34.4160934218       -6.4337997475  MEMB      166             0.0000000000
     19095       166  OSM       H14T           -6.3244463615       33.4249487012       -5.9500017433  MEMB      166             0.0000000000
     19096       166  OSM       C15S           -8.1944335083       32.9356527035       -4.9333118153  MEMB      166             0.0000000000
     19097       166  OSM       H15S           -8.6004772082       31.9113282425       -5.0669845323  MEMB      166             0.0000000000
     19098       166  OSM       H15T           -9.0454165353       33.6257523980       -4.7906723677  MEMB      166             0.0000000000
     19099       166  OSM       C16S           -7.2952434104       33.0012000436       -3.6975833387  MEMB      166             0.0000000000
     19100       166  OSM       H16S           -6.4337664248       33.6522958328       -3.9792072302  MEMB      166             0.0000000000
     19101       166  OSM       H16T           -6.9124787115       31.9829711090       -3.4897830681  MEMB      166             0.0000000000
     19102       166  OSM       C17S           -7.8368159459       33.6384016421       -2.4136760777  MEMB      166             0.0000000000
     19103       166  OSM       H17S           -8.3966771979       32.8836359587       -1.8174712133  MEMB      166             0.0000000000
     19104       166  OSM       H17T           -8.5459003163       34.4592939045       -2.6663752102  MEMB      166             0.0000000000
     19105       166  OSM       C18S           -6.6751468454       34.2277801655       -1.5939920570  MEMB      166             0.0000000000
     19106       166  OSM       H18S           -5.7004348024       34.0624974397       -2.1093031121  MEMB      166             0.0000000000
     19107       166  OSM       H18T           -6.5834738657       33.7672176176       -0.5895727267  MEMB      166             0.0000000000
     19108       166  OSM       H18U           -6.8120503524       35.3209578749       -1.4835975907  MEMB      166             0.0000000000
     19109       166  OSM       C1F            -7.3762421454       31.7923112092      -15.6813633105  MEMB      166             0.0000000000
     19110       166  OSM       OF             -7.0363374274       30.7171441781      -16.1403549744  MEMB      166             0.0000000000
     19111       166  OSM       C2F            -8.1836590284       31.8877870810      -14.4249164393  MEMB      166             0.0000000000
     19112       166  OSM       H2F            -9.0444606018       32.5653433030      -14.6099898866  MEMB      166             0.0000000000
     19113       166  OSM       H2G            -7.5538321597       32.3285218452      -13.6218344787  MEMB      166             0.0000000000
     19114       166  OSM       C3F            -8.6941225965       30.4963446504      -13.9797491445  MEMB      166             0.0000000000
     19115       166  OSM       H3F            -7.8211172391       29.8065362893      -13.8914401954  MEMB      166             0.0000000000
     19116       166  OSM       H3G            -9.3715001201       30.0886186887      -14.7619282731  MEMB      166             0.0000000000
     19117       166  OSM       C4F            -9.4104462516       30.5332536630      -12.6245610950  MEMB      166             0.0000000000
     19118       166  OSM       H4F            -8.7519300747       31.0777990741      -11.9096138158  MEMB      166             0.0000000000
     19119       166  OSM       H4G            -9.5357057701       29.5031620357      -12.2249956204  MEMB      166             0.0000000000
     19120       166  OSM       C5F           -10.7790795210       31.2248182860      -12.6734910781  MEMB      166             0.0000000000
     19121       166  OSM       H5F           -11.5745602549       30.4510200005      -12.5888840617  MEMB      166             0.0000000000
     19122       166  OSM       H5G           -10.9111407252       31.7425680411      -13.6478670751  MEMB      166             0.0000000000
     19123       166  OSM       C6F           -10.9644978301       32.2662539546      -11.5656124630  MEMB      166             0.0000000000
     19124       166  OSM       H6F           -10.4427894437       31.9261767681      -10.6425495047  MEMB      166             0.0000000000
     19125       166  OSM       H6G           -12.0494708059       32.3490786013      -11.3242441062  MEMB      166             0.0000000000
     19126       166  OSM       C7F           -10.4666252846       33.6674152102      -11.9642150402  MEMB      166             0.0000000000
     19127       166  OSM       H7F           -11.1418315864       34.0932954467      -12.7399259221  MEMB      166             0.0000000000
     19128       166  OSM       H7G            -9.4612497540       33.5758520608      -12.4300446211  MEMB      166             0.0000000000
     19129       166  OSM       C8F           -10.3683371376       34.6269449119      -10.7633922191  MEMB      166             0.0000000000
     19130       166  OSM       H8F            -9.8624287322       35.5607851839      -11.0802230007  MEMB      166             0.0000000000
     19131       166  OSM       H8G            -9.7110722794       34.1564465829      -10.0021729794  MEMB      166             0.0000000000
     19132       166  OSM       C9F           -11.7135304910       34.9329618639      -10.1827974157  MEMB      166             0.0000000000
     19133       166  OSM       H9F           -12.2962750788       35.6980491057      -10.7174599247  MEMB      166             0.0000000000
     19134       166  OSM       C10F          -12.2052863924       34.3833575122       -9.0629976749  MEMB      166             0.0000000000
     19135       166  OSM       H10F          -13.2401710324       34.6042200950       -8.7748397469  MEMB      166             0.0000000000
     19136       166  OSM       C11F          -11.5420529144       33.3749664218       -8.1639262582  MEMB      166             0.0000000000
     19137       166  OSM       H11F          -10.4994966320       33.1459391192       -8.4411861378  MEMB      166             0.0000000000
     19138       166  OSM       H11G          -12.1043970562       32.4147732545       -8.2310184169  MEMB      166             0.0000000000
     19139       166  OSM       C12F          -11.6049474078       33.8388783913       -6.6992811372  MEMB      166             0.0000000000
     19140       166  OSM       H12F          -11.3124837025       32.9927971756       -6.0355723270  MEMB      166             0.0000000000
     19141       166  OSM       H12G          -12.6771820493       34.0748960652       -6.5460260472  MEMB      166             0.0000000000
     19142       166  OSM       C13F          -10.8452587284       35.1107093970       -6.2792211359  MEMB      166             0.0000000000
     19143       166  OSM       H13F          -11.2503779680       35.9651160694       -6.8649113231  MEMB      166             0.0000000000
     19144       166  OSM       H13G           -9.7716526119       35.0053079320       -6.5252352386  MEMB      166             0.0000000000
     19145       166  OSM       C14F          -11.0137268094       35.4754368435       -4.7798393938  MEMB      166             0.0000000000
     19146       166  OSM       H14F          -10.6306239907       34.6669803039       -4.1220236390  MEMB      166             0.0000000000
     19147       166  OSM       H14G          -12.0942342858       35.5136634382       -4.5765768949  MEMB      166             0.0000000000
     19148       166  OSM       C15F          -10.2843030903       36.7862374672       -4.4086013477  MEMB      166             0.0000000000
     19149       166  OSM       H15F           -9.9471284189       37.2725938769       -5.3515420782  MEMB      166             0.0000000000
     19150       166  OSM       H15G           -9.3645634369       36.4786045907       -3.8619247143  MEMB      166             0.0000000000
     19151       166  OSM       C16F          -10.9502990644       37.8572267987       -3.5045769828  MEMB      166             0.0000000000
     19152       166  OSM       H16F          -10.5473710489       38.8460524578       -3.8335069702  MEMB      166             0.0000000000
     19153       166  OSM       H16G          -10.5700700171       37.7067978711       -2.4688149536  MEMB      166             0.0000000000
     19154       166  OSM       C17F          -12.4906448177       37.9570899829       -3.4874105048  MEMB      166             0.0000000000
     19155       166  OSM       H17F          -12.9458068036       36.9650990830       -3.6506870997  MEMB      166             0.0000000000
     19156       166  OSM       H17G          -12.8171637019       38.5936712502       -4.3364788243  MEMB      166             0.0000000000
     19157       166  OSM       C18F          -13.1240486161       38.4806321684       -2.1843245250  MEMB      166             0.0000000000
     19158       166  OSM       H18F          -14.1233593052       38.9116098880       -2.3972243354  MEMB      166             0.0000000000
     19159       166  OSM       H18G          -12.4709560523       39.2092391446       -1.6712101667  MEMB      166             0.0000000000
     19160       166  OSM       H18H          -13.3046832267       37.6961766606       -1.4393382739  MEMB      166             0.0000000000
     19161       167  SAPE      N              -1.1028004369       37.2224157699      -18.6860230449  MEMB      167             0.0000000000
     19162       167  SAPE      HN1            -2.1033123732       37.4562966764      -18.8499227165  MEMB      167             0.0000000000
     19163       167  SAPE      HN2            -1.0282471807       36.1963700765      -18.5324843429  MEMB      167             0.0000000000
     19164       167  SAPE      HN3            -0.7934873581       37.7359037794      -17.8332462237  MEMB      167             0.0000000000
     19165       167  SAPE      C12            -0.2424604258       37.5853681069      -19.8758657694  MEMB      167             0.0000000000
     19166       167  SAPE      H12A           -0.3498283541       38.6728134315      -20.0687555199  MEMB      167             0.0000000000
     19167       167  SAPE      H12B           -0.6053432969       37.0187425311      -20.7588855784  MEMB      167             0.0000000000
     19168       167  SAPE      C11             1.2363245963       37.2763324861      -19.6346007832  MEMB      167             0.0000000000
     19169       167  SAPE      H11A            1.3900260389       36.1906110728      -19.4356225153  MEMB      167             0.0000000000
     19170       167  SAPE      H11B            1.5615864429       37.8340895140      -18.7183765343  MEMB      167             0.0000000000
     19171       167  SAPE      P               3.2399590443       38.5940097027      -20.6326026801  MEMB      167             0.0000000000
     19172       167  SAPE      O13             4.0114069016       38.7660127510      -21.9036179043  MEMB      167             0.0000000000
     19173       167  SAPE      O14             2.7253026596       39.7988298727      -19.9586547507  MEMB      167             0.0000000000
     19174       167  SAPE      O12             1.9659562893       37.6469080116      -20.8152209112  MEMB      167             0.0000000000
     19175       167  SAPE      O11             4.0432190220       37.7091593449      -19.5842903329  MEMB      167             0.0000000000
     19176       167  SAPE      C1              4.3909072583       36.3783978892      -20.0222381561  MEMB      167             0.0000000000
     19177       167  SAPE      HA              3.6780575411       35.9488675721      -20.7683431302  MEMB      167             0.0000000000
     19178       167  SAPE      HB              5.3565509938       36.4443069648      -20.5496131446  MEMB      167             0.0000000000
     19179       167  SAPE      C2              4.5069503381       35.2677274309      -18.9183307730  MEMB      167             0.0000000000
     19180       167  SAPE      HS              4.9759593250       34.4146452460      -19.4412563712  MEMB      167             0.0000000000
     19181       167  SAPE      O21             3.2042309366       34.8820621643      -18.4481484133  MEMB      167             0.0000000000
     19182       167  SAPE      C21             3.2209745117       33.6882411456      -17.8733484479  MEMB      167             0.0000000000
     19183       167  SAPE      O22             4.1041897451       32.8567484253      -17.9105053149  MEMB      167             0.0000000000
     19184       167  SAPE      C22             2.0140998827       33.5605431023      -17.0020024806  MEMB      167             0.0000000000
     19185       167  SAPE      H2R             1.5586222060       34.5568804412      -16.8396001572  MEMB      167             0.0000000000
     19186       167  SAPE      H2S             1.2701762266       32.8995400275      -17.4836544801  MEMB      167             0.0000000000
     19187       167  SAPE      C3              5.3907550819       35.6375683428      -17.6828072859  MEMB      167             0.0000000000
     19188       167  SAPE      HX              6.3614436074       35.9801979282      -18.0840588322  MEMB      167             0.0000000000
     19189       167  SAPE      HY              5.6014862999       34.7140829892      -17.0934581157  MEMB      167             0.0000000000
     19190       167  SAPE      O31             4.8330681263       36.7021650191      -16.8940171805  MEMB      167             0.0000000000
     19191       167  SAPE      C31             4.4625995974       36.4742878391      -15.6415267769  MEMB      167             0.0000000000
     19192       167  SAPE      O32             4.6263089918       35.4450573522      -15.0169831936  MEMB      167             0.0000000000
     19193       167  SAPE      C32             3.8336917387       37.7532307599      -15.0934542556  MEMB      167             0.0000000000
     19194       167  SAPE      H2X             4.4742832415       38.5968647853      -15.4267309334  MEMB      167             0.0000000000
     19195       167  SAPE      H2Y             3.8649068107       37.7048667474      -13.9861734481  MEMB      167             0.0000000000
     19196       167  SAPE      C23             2.5465316656       32.9555418344      -15.6977635080  MEMB      167             0.0000000000
     19197       167  SAPE      H3R             3.3669818879       33.5686713572      -15.2651406092  MEMB      167             0.0000000000
     19198       167  SAPE      H3S             2.9902386758       31.9499977281      -15.8884420156  MEMB      167             0.0000000000
     19199       167  SAPE      C24             1.4154009814       32.8259989254      -14.7131770390  MEMB      167             0.0000000000
     19200       167  SAPE      H4R             1.6654078662       32.0467545437      -13.9603184655  MEMB      167             0.0000000000
     19201       167  SAPE      H4S             0.5538245467       32.4606615392      -15.2979906732  MEMB      167             0.0000000000
     19202       167  SAPE      C25             1.0862148816       34.1732136564      -14.1397879342  MEMB      167             0.0000000000
     19203       167  SAPE      H5R             0.9285226075       34.9730348569      -14.8719923459  MEMB      167             0.0000000000
     19204       167  SAPE      C26             1.0440155828       34.4647912170      -12.8402794386  MEMB      167             0.0000000000
     19205       167  SAPE      H6R             0.8106835028       35.4938494959      -12.5240702533  MEMB      167             0.0000000000
     19206       167  SAPE      C27             1.3296436694       33.4688280054      -11.7484386905  MEMB      167             0.0000000000
     19207       167  SAPE      H7R             1.9470659343       32.6155654299      -12.0917676359  MEMB      167             0.0000000000
     19208       167  SAPE      H7S             0.3822800348       32.9762322314      -11.5158283425  MEMB      167             0.0000000000
     19209       167  SAPE      C28             2.0226067653       33.9957103487      -10.5234227341  MEMB      167             0.0000000000
     19210       167  SAPE      H8R             1.4941395866       33.8992526713       -9.5594049777  MEMB      167             0.0000000000
     19211       167  SAPE      C29             3.1904975214       34.6554825038      -10.5773088525  MEMB      167             0.0000000000
     19212       167  SAPE      H9R             3.6925118772       34.9102118999       -9.6457313881  MEMB      167             0.0000000000
     19213       167  SAPE      C210            3.9760513389       34.9799230507      -11.8261403995  MEMB      167             0.0000000000
     19214       167  SAPE      H10R            3.3193871595       35.5216369631      -12.5424029392  MEMB      167             0.0000000000
     19215       167  SAPE      H10S            4.2684875194       34.0373406906      -12.3485798914  MEMB      167             0.0000000000
     19216       167  SAPE      C211            5.1677425751       35.8849024475      -11.6514519099  MEMB      167             0.0000000000
     19217       167  SAPE      H11R            6.1169887413       35.4538216629      -11.9995624180  MEMB      167             0.0000000000
     19218       167  SAPE      C212            5.1725025570       37.1188479368      -11.1078735425  MEMB      167             0.0000000000
     19219       167  SAPE      H12R            6.1155665880       37.6886649367      -11.1237910584  MEMB      167             0.0000000000
     19220       167  SAPE      C213            3.9861437248       37.8733350060      -10.5445872543  MEMB      167             0.0000000000
     19221       167  SAPE      H13R            3.0611870476       37.2646702643      -10.5032389775  MEMB      167             0.0000000000
     19222       167  SAPE      H13S            3.7493674400       38.7415716851      -11.1999335990  MEMB      167             0.0000000000
     19223       167  SAPE      C214            4.3438975145       38.3864458846       -9.1780024560  MEMB      167             0.0000000000
     19224       167  SAPE      H14R            4.5306199077       39.4609744476       -9.1568072780  MEMB      167             0.0000000000
     19225       167  SAPE      C215            4.3710841320       37.7732175538       -7.9907229066  MEMB      167             0.0000000000
     19226       167  SAPE      H15R            4.8455449590       38.3165048903       -7.1566947302  MEMB      167             0.0000000000
     19227       167  SAPE      C216            4.0268785627       36.3481939812       -7.6935121754  MEMB      167             0.0000000000
     19228       167  SAPE      H16R            4.7424643073       35.6660613797       -8.2042099268  MEMB      167             0.0000000000
     19229       167  SAPE      H16S            2.9911880932       36.1248767496       -8.0393188423  MEMB      167             0.0000000000
     19230       167  SAPE      C217            4.1276167143       36.0223693681       -6.2047975344  MEMB      167             0.0000000000
     19231       167  SAPE      H17R            5.2090483404       35.9894253969       -5.9494798281  MEMB      167             0.0000000000
     19232       167  SAPE      H17S            3.6927493769       35.0156462925       -6.0024523730  MEMB      167             0.0000000000
     19233       167  SAPE      C218            3.5720576749       37.0501161359       -5.2334076958  MEMB      167             0.0000000000
     19234       167  SAPE      H18R            2.5397341203       36.7937268722       -4.9726378959  MEMB      167             0.0000000000
     19235       167  SAPE      H18S            3.5411352596       38.0869875505       -5.6177531021  MEMB      167             0.0000000000
     19236       167  SAPE      C219            4.4426374243       37.0386579404       -3.9952007518  MEMB      167             0.0000000000
     19237       167  SAPE      H19R            5.4940982672       37.3150896077       -4.2362602782  MEMB      167             0.0000000000
     19238       167  SAPE      H19S            4.4643056510       35.9988195434       -3.5978511796  MEMB      167             0.0000000000
     19239       167  SAPE      C220            3.9069278170       37.9498710877       -2.9316344176  MEMB      167             0.0000000000
     19240       167  SAPE      H20R            2.8007181285       37.8972495673       -2.8335844769  MEMB      167             0.0000000000
     19241       167  SAPE      H20S            4.1732091563       38.9770478923       -3.0214523705  MEMB      167             0.0000000000
     19242       167  SAPE      H20T            4.4102914391       37.6744409630       -2.0001524195  MEMB      167             0.0000000000
     19243       167  SAPE      C33             2.3923514034       37.9761124418      -15.6148303407  MEMB      167             0.0000000000
     19244       167  SAPE      H3X             1.7044512953       37.2647841719      -15.1095030228  MEMB      167             0.0000000000
     19245       167  SAPE      H3Y             2.3789168218       37.7546351215      -16.7068878020  MEMB      167             0.0000000000
     19246       167  SAPE      C34             1.9096151817       39.4298483534      -15.4545600533  MEMB      167             0.0000000000
     19247       167  SAPE      H4X             0.9743717645       39.5760324144      -16.0375686238  MEMB      167             0.0000000000
     19248       167  SAPE      H4Y             2.6822365450       40.1079241695      -15.8819393766  MEMB      167             0.0000000000
     19249       167  SAPE      C35             1.6340892114       39.8393926300      -14.0069875538  MEMB      167             0.0000000000
     19250       167  SAPE      H5X             1.5011076300       40.9439721269      -13.9302689649  MEMB      167             0.0000000000
     19251       167  SAPE      H5Y             2.5062130471       39.5654448818      -13.3686930276  MEMB      167             0.0000000000
     19252       167  SAPE      C36             0.3758169840       39.1715963946      -13.4567539356  MEMB      167             0.0000000000
     19253       167  SAPE      H6X             0.4424057737       38.0720416365      -13.6127600191  MEMB      167             0.0000000000
     19254       167  SAPE      H6Y            -0.5322926331       39.5312658508      -13.9831807151  MEMB      167             0.0000000000
     19255       167  SAPE      C37             0.2371316306       39.4213004173      -11.9654311127  MEMB      167             0.0000000000
     19256       167  SAPE      H7X            -0.6327454980       40.0815504077      -11.7549889909  MEMB      167             0.0000000000
     19257       167  SAPE      H7Y             1.1447484187       39.9495701894      -11.5871608781  MEMB      167             0.0000000000
     19258       167  SAPE      C38             0.1123725787       38.1081179702      -11.2039643782  MEMB      167             0.0000000000
     19259       167  SAPE      H8X             1.0144096824       37.4784733007      -11.3822618218  MEMB      167             0.0000000000
     19260       167  SAPE      H8Y            -0.7816298345       37.5425277075      -11.5453573777  MEMB      167             0.0000000000
     19261       167  SAPE      C39             0.0020603521       38.4395236984       -9.7350369303  MEMB      167             0.0000000000
     19262       167  SAPE      H9X            -0.9023039989       39.0668684673       -9.5900521338  MEMB      167             0.0000000000
     19263       167  SAPE      H9Y             0.8974316771       39.0346429778       -9.4329970259  MEMB      167             0.0000000000
     19264       167  SAPE      C310           -0.1100035430       37.2395052436       -8.8249477320  MEMB      167             0.0000000000
     19265       167  SAPE      H10X            0.6371662987       36.4590420169       -9.0948675859  MEMB      167             0.0000000000
     19266       167  SAPE      H10Y           -1.1253655155       36.7921071250       -8.9141327824  MEMB      167             0.0000000000
     19267       167  SAPE      C311            0.1370310674       37.7171127309       -7.4025612000  MEMB      167             0.0000000000
     19268       167  SAPE      H11X           -0.4737380651       38.6058355545       -7.1714284267  MEMB      167             0.0000000000
     19269       167  SAPE      H11Y            1.2070771870       38.0107062558       -7.2835594492  MEMB      167             0.0000000000
     19270       167  SAPE      C312           -0.1951207063       36.6202252561       -6.4291421709  MEMB      167             0.0000000000
     19271       167  SAPE      H12X            0.5695190596       35.8551081879       -6.6847949080  MEMB      167             0.0000000000
     19272       167  SAPE      H12Y           -1.1997442562       36.1827217442       -6.6225537298  MEMB      167             0.0000000000
     19273       167  SAPE      C313           -0.1285805377       37.0801238007       -4.9765210031  MEMB      167             0.0000000000
     19274       167  SAPE      H13X           -0.9851948999       37.7490626482       -4.7374712035  MEMB      167             0.0000000000
     19275       167  SAPE      H13Y            0.7861252938       37.6830783007       -4.7980398990  MEMB      167             0.0000000000
     19276       167  SAPE      C314           -0.1455916975       35.8655502532       -4.0598710235  MEMB      167             0.0000000000
     19277       167  SAPE      H14X           -1.1866483561       35.4752011835       -4.0387722248  MEMB      167             0.0000000000
     19278       167  SAPE      H14Y            0.1100883531       36.1786559155       -3.0296830978  MEMB      167             0.0000000000
     19279       167  SAPE      C315            0.8038029498       34.7477990454       -4.5229354899  MEMB      167             0.0000000000
     19280       167  SAPE      H15X            1.8389007880       35.1074419222       -4.6180960975  MEMB      167             0.0000000000
     19281       167  SAPE      H15Y            0.4996501230       34.3270725066       -5.5063634125  MEMB      167             0.0000000000
     19282       167  SAPE      C316            0.7935968798       33.5835514866       -3.5720286646  MEMB      167             0.0000000000
     19283       167  SAPE      H16X            0.7805890351       33.9835370720       -2.5426570496  MEMB      167             0.0000000000
     19284       167  SAPE      H16Y            1.6939578021       32.9431042139       -3.7070720495  MEMB      167             0.0000000000
     19285       167  SAPE      C317           -0.4583643783       32.7925479985       -3.8142675856  MEMB      167             0.0000000000
     19286       167  SAPE      H17X           -0.4889106418       32.4552553464       -4.8772599081  MEMB      167             0.0000000000
     19287       167  SAPE      H17Y           -1.3426135808       33.4541381368       -3.6426246726  MEMB      167             0.0000000000
     19288       167  SAPE      C318           -0.5642143348       31.5973964060       -2.9084042710  MEMB      167             0.0000000000
     19289       167  SAPE      H18X           -1.4889176044       31.0688438737       -3.1990789141  MEMB      167             0.0000000000
     19290       167  SAPE      H18Y           -0.6279303242       31.9288176297       -1.8449144136  MEMB      167             0.0000000000
     19291       167  SAPE      H18Z            0.2772265249       30.8899866629       -3.0438391339  MEMB      167             0.0000000000
     19292       168  SAPS      N              21.9430800453      -29.0088917989      -22.0662399741  MEMB      168             0.0000000000
     19293       168  SAPS      HN1            22.6381535928      -29.0465432110      -22.8367795854  MEMB      168             0.0000000000
     19294       168  SAPS      HN2            22.3219643633      -29.4336048331      -21.1830667165  MEMB      168             0.0000000000
     19295       168  SAPS      HN3            21.0514371474      -29.4694396789      -22.3437579778  MEMB      168             0.0000000000
     19296       168  SAPS      C12            21.6696483514      -27.5689590724      -21.7073019205  MEMB      168             0.0000000000
     19297       168  SAPS      H12A           22.6272668076      -27.0976350374      -21.5389326672  MEMB      168             0.0000000000
     19298       168  SAPS      C13            20.9643308751      -26.7209737560      -22.7748849259  MEMB      168             0.0000000000
     19299       168  SAPS      O13A           20.7163834055      -27.2745317105      -23.8806979907  MEMB      168             0.0000000000
     19300       168  SAPS      O13B           20.8445272133      -25.4806109191      -22.5632035761  MEMB      168             0.0000000000
     19301       168  SAPS      C11            20.9242126009      -27.5632336362      -20.3550598459  MEMB      168             0.0000000000
     19302       168  SAPS      H11A           19.9383633397      -28.0742725349      -20.4515333230  MEMB      168             0.0000000000
     19303       168  SAPS      H11B           20.7368427911      -26.5212582034      -20.0083097045  MEMB      168             0.0000000000
     19304       168  SAPS      P              21.9083721614      -28.2614551021      -17.9356046013  MEMB      168             0.0000000000
     19305       168  SAPS      O13            23.1043159941      -27.4889613346      -17.5557769474  MEMB      168             0.0000000000
     19306       168  SAPS      O14            20.6292424230      -27.9333152377      -17.2735469554  MEMB      168             0.0000000000
     19307       168  SAPS      O12            21.7772388429      -28.2774396389      -19.4825014056  MEMB      168             0.0000000000
     19308       168  SAPS      O11            22.1902748933      -29.7460182174      -17.7880947786  MEMB      168             0.0000000000
     19309       168  SAPS      C1             21.3041954523      -30.7651734194      -18.1649159675  MEMB      168             0.0000000000
     19310       168  SAPS      HA             20.2303494195      -30.4609569271      -18.2057743474  MEMB      168             0.0000000000
     19311       168  SAPS      HB             21.6160153641      -31.1022539218      -19.1723161216  MEMB      168             0.0000000000
     19312       168  SAPS      C2             21.5497526122      -31.8662011481      -17.1336639457  MEMB      168             0.0000000000
     19313       168  SAPS      HS             21.0079210395      -32.7810590458      -17.4709197199  MEMB      168             0.0000000000
     19314       168  SAPS      O21            21.1424528502      -31.4333907432      -15.8079692898  MEMB      168             0.0000000000
     19315       168  SAPS      C21            19.8336851407      -31.3407487693      -15.7102099885  MEMB      168             0.0000000000
     19316       168  SAPS      O22            19.0399171588      -31.9869028325      -16.3788477069  MEMB      168             0.0000000000
     19317       168  SAPS      C22            19.4019937812      -30.2831142740      -14.6834534900  MEMB      168             0.0000000000
     19318       168  SAPS      H2R            20.0706970919      -29.4126269704      -14.8667357783  MEMB      168             0.0000000000
     19319       168  SAPS      H2S            18.3795716237      -30.0129489324      -15.0055245657  MEMB      168             0.0000000000
     19320       168  SAPS      C3             23.0588160938      -32.1977676916      -17.1388752395  MEMB      168             0.0000000000
     19321       168  SAPS      HX             23.4130303523      -32.1843600189      -18.1892371080  MEMB      168             0.0000000000
     19322       168  SAPS      HY             23.1547181672      -33.2208558674      -16.7462235057  MEMB      168             0.0000000000
     19323       168  SAPS      O31            23.8576719849      -31.2459102341      -16.4238282444  MEMB      168             0.0000000000
     19324       168  SAPS      C31            24.1568241480      -31.5937764430      -15.1983473994  MEMB      168             0.0000000000
     19325       168  SAPS      O32            24.1019536280      -32.7171857897      -14.7353859913  MEMB      168             0.0000000000
     19326       168  SAPS      C32            24.5797144066      -30.3515999394      -14.4302792254  MEMB      168             0.0000000000
     19327       168  SAPS      H2X            23.9860526936      -29.4923720899      -14.8088235062  MEMB      168             0.0000000000
     19328       168  SAPS      H2Y            25.6408074228      -30.2113094829      -14.7119197332  MEMB      168             0.0000000000
     19329       168  SAPS      C23            19.3917902197      -30.6035009154      -13.1463837502  MEMB      168             0.0000000000
     19330       168  SAPS      H3R            19.1251889290      -29.6544854796      -12.6241177419  MEMB      168             0.0000000000
     19331       168  SAPS      H3S            20.4260998698      -30.8057642572      -12.8508254205  MEMB      168             0.0000000000
     19332       168  SAPS      C24            18.3585414720      -31.6792709859      -12.6641064171  MEMB      168             0.0000000000
     19333       168  SAPS      H4R            18.0073189989      -32.2005781106      -13.5821847195  MEMB      168             0.0000000000
     19334       168  SAPS      H4S            17.5067567301      -31.1415015807      -12.2538878197  MEMB      168             0.0000000000
     19335       168  SAPS      C25            18.5558457957      -32.7402721248      -11.6075317353  MEMB      168             0.0000000000
     19336       168  SAPS      H5R            18.4903807022      -33.7702024290      -12.0007628972  MEMB      168             0.0000000000
     19337       168  SAPS      C26            18.7962391540      -32.6060164788      -10.2921484144  MEMB      168             0.0000000000
     19338       168  SAPS      H6R            18.8950776314      -33.5317508294       -9.6954880754  MEMB      168             0.0000000000
     19339       168  SAPS      C27            18.9357151429      -31.3041726442       -9.5456933378  MEMB      168             0.0000000000
     19340       168  SAPS      H7R            18.3310576682      -30.5201581707      -10.0450457907  MEMB      168             0.0000000000
     19341       168  SAPS      H7S            19.9919067867      -30.9690086544       -9.6079716971  MEMB      168             0.0000000000
     19342       168  SAPS      C28            18.5229878459      -31.3968877002       -8.1010676749  MEMB      168             0.0000000000
     19343       168  SAPS      H8R            17.8309779102      -32.2166130935       -7.8525136121  MEMB      168             0.0000000000
     19344       168  SAPS      C29            18.9064997180      -30.6011350252       -7.0894026686  MEMB      168             0.0000000000
     19345       168  SAPS      H9R            18.4380633381      -30.7837863035       -6.1187083549  MEMB      168             0.0000000000
     19346       168  SAPS      C210           19.8305172416      -29.4092459165       -7.0556201442  MEMB      168             0.0000000000
     19347       168  SAPS      H10R           20.1322916372      -29.1148581235       -8.0818679263  MEMB      168             0.0000000000
     19348       168  SAPS      H10S           20.7568036408      -29.7401812638       -6.5325143998  MEMB      168             0.0000000000
     19349       168  SAPS      C211           19.3182291466      -28.1896127196       -6.3164910961  MEMB      168             0.0000000000
     19350       168  SAPS      H11R           19.1282840920      -27.3040545514       -6.9451121564  MEMB      168             0.0000000000
     19351       168  SAPS      C212           19.0627108372      -28.1173557082       -4.9928895257  MEMB      168             0.0000000000
     19352       168  SAPS      H12R           18.9097868439      -27.1321136581       -4.5493168426  MEMB      168             0.0000000000
     19353       168  SAPS      C213           19.2469932314      -29.2324410152       -4.0040066838  MEMB      168             0.0000000000
     19354       168  SAPS      H13R           19.7962119632      -28.8475893825       -3.1164072539  MEMB      168             0.0000000000
     19355       168  SAPS      H13S           19.9281034289      -29.8709369815       -4.5521579521  MEMB      168             0.0000000000
     19356       168  SAPS      C214           18.1580242227      -30.1654439982       -3.5366469454  MEMB      168             0.0000000000
     19357       168  SAPS      H14R           17.2790467825      -29.6747660874       -3.0943237980  MEMB      168             0.0000000000
     19358       168  SAPS      C215           18.1966359235      -31.5183883171       -3.6118123527  MEMB      168             0.0000000000
     19359       168  SAPS      H15R           17.2796541237      -32.0804566332       -3.3723615139  MEMB      168             0.0000000000
     19360       168  SAPS      C216           19.3173011592      -32.3722470805       -4.1775406394  MEMB      168             0.0000000000
     19361       168  SAPS      H16R           19.6643832244      -31.9738766292       -5.1504866830  MEMB      168             0.0000000000
     19362       168  SAPS      H16S           18.9013725886      -33.3726963673       -4.4257890451  MEMB      168             0.0000000000
     19363       168  SAPS      C217           20.6574449721      -32.5759256464       -3.4239548889  MEMB      168             0.0000000000
     19364       168  SAPS      H17R           21.2573378896      -33.1519089619       -4.1565020803  MEMB      168             0.0000000000
     19365       168  SAPS      H17S           20.5033665510      -33.2049300477       -2.5239109990  MEMB      168             0.0000000000
     19366       168  SAPS      C218           21.4264162633      -31.2805011163       -3.0965813254  MEMB      168             0.0000000000
     19367       168  SAPS      H18R           20.9212417519      -30.7800870955       -2.2404746109  MEMB      168             0.0000000000
     19368       168  SAPS      H18S           21.4499636224      -30.6359926725       -3.9914272301  MEMB      168             0.0000000000
     19369       168  SAPS      C219           22.9301840816      -31.2860861978       -2.8591549412  MEMB      168             0.0000000000
     19370       168  SAPS      H19R           23.4798377462      -31.5668624234       -3.7852576472  MEMB      168             0.0000000000
     19371       168  SAPS      H19S           23.1454423712      -32.0053986325       -2.0705167304  MEMB      168             0.0000000000
     19372       168  SAPS      C220           23.4125977384      -29.9180343388       -2.4054365761  MEMB      168             0.0000000000
     19373       168  SAPS      H20R           23.3094719432      -29.2011403882       -3.2413795866  MEMB      168             0.0000000000
     19374       168  SAPS      H20S           24.4638154603      -29.9188428824       -2.0573211202  MEMB      168             0.0000000000
     19375       168  SAPS      H20T           22.7694109483      -29.5968243666       -1.5686885663  MEMB      168             0.0000000000
     19376       168  SAPS      C33            24.4575625730      -30.4997998348      -12.8955862647  MEMB      168             0.0000000000
     19377       168  SAPS      H3X            25.4806003122      -30.5589512310      -12.4731856638  MEMB      168             0.0000000000
     19378       168  SAPS      H3Y            23.9788699323      -31.4549364029      -12.6055946572  MEMB      168             0.0000000000
     19379       168  SAPS      C34            23.7231892224      -29.3470317550      -12.2041235579  MEMB      168             0.0000000000
     19380       168  SAPS      H4X            22.6720338895      -29.2909960821      -12.5616865485  MEMB      168             0.0000000000
     19381       168  SAPS      H4Y            24.2346172899      -28.4007880481      -12.4863476408  MEMB      168             0.0000000000
     19382       168  SAPS      C35            23.7879210042      -29.5291939799      -10.6852584130  MEMB      168             0.0000000000
     19383       168  SAPS      H5X            24.7984074787      -29.2362580691      -10.3380478478  MEMB      168             0.0000000000
     19384       168  SAPS      H5Y            23.6786435787      -30.6075282591      -10.4467659648  MEMB      168             0.0000000000
     19385       168  SAPS      C36            22.7438992230      -28.7512178633       -9.8887643550  MEMB      168             0.0000000000
     19386       168  SAPS      H6X            21.7238327717      -29.0324295186      -10.2405073450  MEMB      168             0.0000000000
     19387       168  SAPS      H6Y            22.8827824440      -27.6645700394      -10.0843234357  MEMB      168             0.0000000000
     19388       168  SAPS      C37            22.8687089343      -29.0395181871       -8.3794485239  MEMB      168             0.0000000000
     19389       168  SAPS      H7X            23.7727083342      -29.6421543858       -8.1643006826  MEMB      168             0.0000000000
     19390       168  SAPS      H7Y            22.0476569114      -29.7252613517       -8.1149409640  MEMB      168             0.0000000000
     19391       168  SAPS      C38            22.8653180252      -27.7495928613       -7.5371763758  MEMB      168             0.0000000000
     19392       168  SAPS      H8X            21.8842418371      -27.2484021253       -7.6885166728  MEMB      168             0.0000000000
     19393       168  SAPS      H8Y            23.6418606477      -27.0574152731       -7.9311681387  MEMB      168             0.0000000000
     19394       168  SAPS      C39            23.0916288870      -27.8905913660       -6.0182172626  MEMB      168             0.0000000000
     19395       168  SAPS      H9X            24.1757091944      -27.9277571273       -5.7871502855  MEMB      168             0.0000000000
     19396       168  SAPS      H9Y            22.6117869455      -28.8133612182       -5.6253853515  MEMB      168             0.0000000000
     19397       168  SAPS      C310           22.5362834207      -26.6684776445       -5.2754622703  MEMB      168             0.0000000000
     19398       168  SAPS      H10X           21.4819806740      -26.5420051422       -5.5948295623  MEMB      168             0.0000000000
     19399       168  SAPS      H10Y           23.0923750210      -25.7603748643       -5.5996817046  MEMB      168             0.0000000000
     19400       168  SAPS      C311           22.6116602833      -26.7667851846       -3.7463684416  MEMB      168             0.0000000000
     19401       168  SAPS      H11X           23.6704622371      -26.9170040303       -3.4369472248  MEMB      168             0.0000000000
     19402       168  SAPS      H11Y           22.0024453727      -27.6260511067       -3.3859455930  MEMB      168             0.0000000000
     19403       168  SAPS      C312           22.0807628008      -25.5135063080       -3.0636772847  MEMB      168             0.0000000000
     19404       168  SAPS      H12X           22.6298334358      -24.6299762569       -3.4603826916  MEMB      168             0.0000000000
     19405       168  SAPS      H12Y           22.3001174577      -25.5622303779       -1.9713554367  MEMB      168             0.0000000000
     19406       168  SAPS      C313           20.5788309455      -25.3082157760       -3.3147467536  MEMB      168             0.0000000000
     19407       168  SAPS      H13X           19.9953896979      -25.9432018568       -2.6159122963  MEMB      168             0.0000000000
     19408       168  SAPS      H13Y           20.2698205235      -25.6830237019       -4.3006065331  MEMB      168             0.0000000000
     19409       168  SAPS      C314           20.2191533049      -23.8206919666       -3.2283626689  MEMB      168             0.0000000000
     19410       168  SAPS      H14X           19.1485300021      -23.6180220922       -3.3983553425  MEMB      168             0.0000000000
     19411       168  SAPS      H14Y           20.7884973321      -23.2923253928       -4.0300673017  MEMB      168             0.0000000000
     19412       168  SAPS      C315           20.5739647785      -23.2184266173       -1.8712642379  MEMB      168             0.0000000000
     19413       168  SAPS      H15X           20.0633900411      -22.2344506134       -1.7507653529  MEMB      168             0.0000000000
     19414       168  SAPS      H15Y           21.6674039162      -23.0738600499       -1.9029538294  MEMB      168             0.0000000000
     19415       168  SAPS      C316           20.2487440247      -24.1150776097       -0.6778532116  MEMB      168             0.0000000000
     19416       168  SAPS      H16X           20.9069535891      -23.9990059483        0.1995264787  MEMB      168             0.0000000000
     19417       168  SAPS      H16Y           20.4755173871      -25.1551482392       -0.9357897303  MEMB      168             0.0000000000
     19418       168  SAPS      C317           18.7752492171      -24.0484564713       -0.3316165386  MEMB      168             0.0000000000
     19419       168  SAPS      H17X           18.2542178227      -23.5346046132       -1.1787807404  MEMB      168             0.0000000000
     19420       168  SAPS      H17Y           18.6071906867      -23.4350544887        0.5813750720  MEMB      168             0.0000000000
     19421       168  SAPS      C318           18.2096293853      -25.4562851708       -0.2020901061  MEMB      168             0.0000000000
     19422       168  SAPS      H18X           18.7312078344      -26.1731063484       -0.8698794593  MEMB      168             0.0000000000
     19423       168  SAPS      H18Y           17.1579961070      -25.4558918422       -0.5302732254  MEMB      168             0.0000000000
     19424       168  SAPS      H18Z           18.2655972034      -25.8541280000        0.8162254153  MEMB      168             0.0000000000
     19425       169  SAPE      N              36.0307969047        0.1890830379      -20.3899927601  MEMB      169             0.0000000000
     19426       169  SAPE      HN1            35.1858437475       -0.2595495993      -20.7874906315  MEMB      169             0.0000000000
     19427       169  SAPE      HN2            36.0312957802        1.2334833867      -20.4983618571  MEMB      169             0.0000000000
     19428       169  SAPE      HN3            36.8910314182       -0.1663538812      -20.8803186216  MEMB      169             0.0000000000
     19429       169  SAPE      C12            36.2737859874       -0.3272952600      -19.0050077581  MEMB      169             0.0000000000
     19430       169  SAPE      H12A           35.4167426688       -0.9714399086      -18.7332540747  MEMB      169             0.0000000000
     19431       169  SAPE      H12B           36.2572646310        0.4976166511      -18.2935322237  MEMB      169             0.0000000000
     19432       169  SAPE      C11            37.5895431648       -1.1317610789      -19.0244991114  MEMB      169             0.0000000000
     19433       169  SAPE      H11A           37.5374455960       -1.9122533669      -18.2256127701  MEMB      169             0.0000000000
     19434       169  SAPE      H11B           38.4528091888       -0.4901557967      -18.7422781997  MEMB      169             0.0000000000
     19435       169  SAPE      P              37.2027954200       -3.0643754819      -20.6801296006  MEMB      169             0.0000000000
     19436       169  SAPE      O13            37.0737892779       -3.2478754504      -22.1453040918  MEMB      169             0.0000000000
     19437       169  SAPE      O14            37.9661016355       -4.0527356686      -19.9208026018  MEMB      169             0.0000000000
     19438       169  SAPE      O12            37.8390468774       -1.6648996175      -20.3377282535  MEMB      169             0.0000000000
     19439       169  SAPE      O11            35.7674892086       -2.8598436854      -20.0565064691  MEMB      169             0.0000000000
     19440       169  SAPE      C1             34.4943058844       -2.9265231480      -20.6675600752  MEMB      169             0.0000000000
     19441       169  SAPE      HA             34.1150946142       -1.9138719843      -20.9059191611  MEMB      169             0.0000000000
     19442       169  SAPE      HB             34.5733122377       -3.4958022245      -21.6144525606  MEMB      169             0.0000000000
     19443       169  SAPE      C2             33.4460537481       -3.7508949375      -19.8387024595  MEMB      169             0.0000000000
     19444       169  SAPE      HS             32.5768229076       -3.9353316945      -20.5056916247  MEMB      169             0.0000000000
     19445       169  SAPE      O21            32.9082051876       -3.2097544460      -18.6135367172  MEMB      169             0.0000000000
     19446       169  SAPE      C21            32.7566878849       -1.9323828754      -18.3895522768  MEMB      169             0.0000000000
     19447       169  SAPE      O22            32.8232241969       -1.0383546394      -19.2247771882  MEMB      169             0.0000000000
     19448       169  SAPE      C22            32.3454428336       -1.6885661863      -16.9056949855  MEMB      169             0.0000000000
     19449       169  SAPE      H2R            31.8955820826       -0.6776078406      -16.8557455616  MEMB      169             0.0000000000
     19450       169  SAPE      H2S            31.5594242757       -2.4225750436      -16.6313535783  MEMB      169             0.0000000000
     19451       169  SAPE      C3             34.0526678525       -5.1381111435      -19.4722645337  MEMB      169             0.0000000000
     19452       169  SAPE      HX             34.0300158054       -5.8116360583      -20.3428437632  MEMB      169             0.0000000000
     19453       169  SAPE      HY             33.3378708243       -5.5807704174      -18.7540247561  MEMB      169             0.0000000000
     19454       169  SAPE      O31            35.4162439901       -5.1655620566      -18.9858492318  MEMB      169             0.0000000000
     19455       169  SAPE      C31            35.7202027003       -4.4890090139      -17.8875149612  MEMB      169             0.0000000000
     19456       169  SAPE      O32            34.9669695058       -3.7607897843      -17.2844865016  MEMB      169             0.0000000000
     19457       169  SAPE      C32            37.0721001575       -4.8193222001      -17.3262432395  MEMB      169             0.0000000000
     19458       169  SAPE      H2X            37.6469453589       -3.8728256437      -17.2940443972  MEMB      169             0.0000000000
     19459       169  SAPE      H2Y            37.5964196598       -5.5351742589      -17.9858268676  MEMB      169             0.0000000000
     19460       169  SAPE      C23            33.5325338369       -1.7979385571      -15.9045192291  MEMB      169             0.0000000000
     19461       169  SAPE      H3R            34.4780738978       -1.6320343932      -16.4734610693  MEMB      169             0.0000000000
     19462       169  SAPE      H3S            33.5557761695       -2.8473390055      -15.5199407710  MEMB      169             0.0000000000
     19463       169  SAPE      C24            33.5666248049       -0.8278252072      -14.7053969251  MEMB      169             0.0000000000
     19464       169  SAPE      H4R            32.7446322151       -1.0890905135      -14.0022987684  MEMB      169             0.0000000000
     19465       169  SAPE      H4S            33.4027949270        0.2074810748      -15.0683589197  MEMB      169             0.0000000000
     19466       169  SAPE      C25            34.9160455208       -0.9917808848      -14.0331583062  MEMB      169             0.0000000000
     19467       169  SAPE      H5R            35.1973096851       -2.0459464986      -13.9047319314  MEMB      169             0.0000000000
     19468       169  SAPE      C26            35.7525751164       -0.0554151837      -13.5383296700  MEMB      169             0.0000000000
     19469       169  SAPE      H6R            36.7104235778       -0.3844231785      -13.1064024963  MEMB      169             0.0000000000
     19470       169  SAPE      C27            35.5222969792        1.4317077073      -13.5307850234  MEMB      169             0.0000000000
     19471       169  SAPE      H7R            34.4934015140        1.5486407062      -13.1592118900  MEMB      169             0.0000000000
     19472       169  SAPE      H7S            35.5531873301        1.8451828595      -14.5648196170  MEMB      169             0.0000000000
     19473       169  SAPE      C28            36.3958434185        2.2605206142      -12.6196862670  MEMB      169             0.0000000000
     19474       169  SAPE      H8R            37.0797040167        2.9666222066      -13.1202628949  MEMB      169             0.0000000000
     19475       169  SAPE      C29            36.3475550542        2.2633977566      -11.2774675974  MEMB      169             0.0000000000
     19476       169  SAPE      H9R            37.0588212198        2.9049822835      -10.7379107812  MEMB      169             0.0000000000
     19477       169  SAPE      C210           35.4189009887        1.4494956021      -10.4071165063  MEMB      169             0.0000000000
     19478       169  SAPE      H10R           34.5418627257        1.0975623011      -10.9975772836  MEMB      169             0.0000000000
     19479       169  SAPE      H10S           34.9879602978        2.1147977580       -9.6234361891  MEMB      169             0.0000000000
     19480       169  SAPE      C211           36.1066061002        0.2734234379       -9.7538198676  MEMB      169             0.0000000000
     19481       169  SAPE      H11R           37.2062120864        0.2393134461       -9.8406523695  MEMB      169             0.0000000000
     19482       169  SAPE      C212           35.4847769320       -0.7154471622       -9.0818563563  MEMB      169             0.0000000000
     19483       169  SAPE      H12R           36.0969123706       -1.5396279618       -8.6830488498  MEMB      169             0.0000000000
     19484       169  SAPE      C213           33.9946706579       -0.8475597843       -8.8486426981  MEMB      169             0.0000000000
     19485       169  SAPE      H13R           33.7592572112       -1.8933822358       -8.5453040562  MEMB      169             0.0000000000
     19486       169  SAPE      H13S           33.5041207266       -0.7470731208       -9.8445222321  MEMB      169             0.0000000000
     19487       169  SAPE      C214           33.2916552520        0.1209800180       -7.9140314575  MEMB      169             0.0000000000
     19488       169  SAPE      H14R           32.3849427038        0.5556174340       -8.3583203186  MEMB      169             0.0000000000
     19489       169  SAPE      C215           33.5786370271        0.5000104950       -6.6487783595  MEMB      169             0.0000000000
     19490       169  SAPE      H15R           32.9224262635        1.2389185720       -6.1661117700  MEMB      169             0.0000000000
     19491       169  SAPE      C216           34.7140682196        0.0602080395       -5.7643729046  MEMB      169             0.0000000000
     19492       169  SAPE      H16R           35.6527981090        0.0039815501       -6.3611316540  MEMB      169             0.0000000000
     19493       169  SAPE      H16S           34.5171440865       -0.9618633902       -5.3855453456  MEMB      169             0.0000000000
     19494       169  SAPE      C217           34.9931092370        0.9754384938       -4.5338823092  MEMB      169             0.0000000000
     19495       169  SAPE      H17R           35.0091989299        2.0209107435       -4.9134426686  MEMB      169             0.0000000000
     19496       169  SAPE      H17S           36.0032716177        0.6781369642       -4.1787867249  MEMB      169             0.0000000000
     19497       169  SAPE      C218           33.9630634505        0.9095896762       -3.3815159784  MEMB      169             0.0000000000
     19498       169  SAPE      H18R           33.7190149113       -0.1535460577       -3.2522415081  MEMB      169             0.0000000000
     19499       169  SAPE      H18S           33.0753570530        1.4781867337       -3.7342622161  MEMB      169             0.0000000000
     19500       169  SAPE      C219           34.2557144984        1.3237872476       -1.9211034394  MEMB      169             0.0000000000
     19501       169  SAPE      H19R           33.2594669145        1.5028862019       -1.4464824389  MEMB      169             0.0000000000
     19502       169  SAPE      H19S           34.7640785617        2.2956093708       -1.8525508066  MEMB      169             0.0000000000
     19503       169  SAPE      C220           34.9138712271        0.2248557255       -1.0665649896  MEMB      169             0.0000000000
     19504       169  SAPE      H20R           34.1687575600       -0.5692721496       -0.8403091396  MEMB      169             0.0000000000
     19505       169  SAPE      H20S           35.2871823064        0.6175303508       -0.0981260418  MEMB      169             0.0000000000
     19506       169  SAPE      H20T           35.7599853806       -0.2499962513       -1.6048618084  MEMB      169             0.0000000000
     19507       169  SAPE      C33            36.8357567332       -5.4075849214      -15.9241037275  MEMB      169             0.0000000000
     19508       169  SAPE      H3X            36.4896895149       -6.4568546172      -16.0558961134  MEMB      169             0.0000000000
     19509       169  SAPE      H3Y            36.0218017282       -4.8782826434      -15.3834134724  MEMB      169             0.0000000000
     19510       169  SAPE      C34            38.0916731036       -5.4096209047      -15.0654187649  MEMB      169             0.0000000000
     19511       169  SAPE      H4X            38.8815158445       -5.8796688944      -15.6951224577  MEMB      169             0.0000000000
     19512       169  SAPE      H4Y            37.9312007765       -6.0556599339      -14.1760482844  MEMB      169             0.0000000000
     19513       169  SAPE      C35            38.5428299889       -4.0122675742      -14.6035304335  MEMB      169             0.0000000000
     19514       169  SAPE      H5X            38.7516508199       -3.3940497353      -15.5055440021  MEMB      169             0.0000000000
     19515       169  SAPE      H5Y            39.4921923323       -4.1311855977      -14.0423919355  MEMB      169             0.0000000000
     19516       169  SAPE      C36            37.5518905227       -3.2575601664      -13.7111418414  MEMB      169             0.0000000000
     19517       169  SAPE      H6X            36.5280860516       -3.6639381526      -13.8398490459  MEMB      169             0.0000000000
     19518       169  SAPE      H6Y            37.5359791109       -2.1944188902      -14.0424912845  MEMB      169             0.0000000000
     19519       169  SAPE      C37            37.9400691339       -3.2828669416      -12.2287273416  MEMB      169             0.0000000000
     19520       169  SAPE      H7X            38.1106070235       -4.3412098656      -11.9284220311  MEMB      169             0.0000000000
     19521       169  SAPE      H7Y            37.0894292228       -2.8947636575      -11.6216430818  MEMB      169             0.0000000000
     19522       169  SAPE      C38            39.1897869374       -2.4363524530      -11.9301772604  MEMB      169             0.0000000000
     19523       169  SAPE      H8X            38.8820176417       -1.3704033996      -11.8305123281  MEMB      169             0.0000000000
     19524       169  SAPE      H8Y            39.9110357693       -2.4875887762      -12.7724192661  MEMB      169             0.0000000000
     19525       169  SAPE      C39            39.9045365808       -2.8713445619      -10.6483293064  MEMB      169             0.0000000000
     19526       169  SAPE      H9X            40.7320267030       -2.1604003036      -10.4366818158  MEMB      169             0.0000000000
     19527       169  SAPE      H9Y            40.3563714456       -3.8806643305      -10.7875284041  MEMB      169             0.0000000000
     19528       169  SAPE      C310           38.9295133813       -2.8991336897       -9.4705053547  MEMB      169             0.0000000000
     19529       169  SAPE      H10X           38.4046342981       -3.8808608250       -9.4625335441  MEMB      169             0.0000000000
     19530       169  SAPE      H10Y           38.1648891815       -2.1065916317       -9.6328260409  MEMB      169             0.0000000000
     19531       169  SAPE      C311           39.5855052651       -2.6349948533       -8.1171821208  MEMB      169             0.0000000000
     19532       169  SAPE      H11X           40.2697007073       -1.7590301407       -8.1956876769  MEMB      169             0.0000000000
     19533       169  SAPE      H11Y           40.1952556312       -3.5055756630       -7.8218852683  MEMB      169             0.0000000000
     19534       169  SAPE      C312           38.5691370854       -2.3504988488       -7.0142670542  MEMB      169             0.0000000000
     19535       169  SAPE      H12X           38.0719571787       -1.3785366381       -7.2379543766  MEMB      169             0.0000000000
     19536       169  SAPE      H12Y           39.1273233857       -2.2253891156       -6.0614725530  MEMB      169             0.0000000000
     19537       169  SAPE      C313           37.4715567417       -3.4114574024       -6.8370545560  MEMB      169             0.0000000000
     19538       169  SAPE      H13X           37.8881008392       -4.3434457400       -6.3994933305  MEMB      169             0.0000000000
     19539       169  SAPE      H13Y           37.0111542282       -3.6808704420       -7.8133187868  MEMB      169             0.0000000000
     19540       169  SAPE      C314           36.3431142120       -2.8569041736       -5.9653414039  MEMB      169             0.0000000000
     19541       169  SAPE      H14X           35.5493642094       -3.6068703302       -5.7751560379  MEMB      169             0.0000000000
     19542       169  SAPE      H14Y           35.8469372690       -2.0782502935       -6.5716800081  MEMB      169             0.0000000000
     19543       169  SAPE      C315           36.8169048015       -2.2201937684       -4.6555758319  MEMB      169             0.0000000000
     19544       169  SAPE      H15X           35.9523200058       -1.8964895961       -4.0545131269  MEMB      169             0.0000000000
     19545       169  SAPE      H15Y           37.3818377915       -1.2857188673       -4.8746985394  MEMB      169             0.0000000000
     19546       169  SAPE      C316           37.6990871590       -3.0797246186       -3.7727151076  MEMB      169             0.0000000000
     19547       169  SAPE      H16X           38.7242501417       -3.0307040712       -4.2022920090  MEMB      169             0.0000000000
     19548       169  SAPE      H16Y           37.4865532443       -4.1488994077       -3.6418885559  MEMB      169             0.0000000000
     19549       169  SAPE      C317           37.7615581025       -2.5312267528       -2.3655464553  MEMB      169             0.0000000000
     19550       169  SAPE      H17X           37.7632139813       -1.4175143718       -2.3491187643  MEMB      169             0.0000000000
     19551       169  SAPE      H17Y           38.7732237220       -2.9654145850       -2.2297848072  MEMB      169             0.0000000000
     19552       169  SAPE      C318           36.9627290890       -3.1117758846       -1.1899933508  MEMB      169             0.0000000000
     19553       169  SAPE      H18X           36.9958738377       -4.2222777083       -1.2225168377  MEMB      169             0.0000000000
     19554       169  SAPE      H18Y           35.9109429596       -2.7713672277       -1.1829795420  MEMB      169             0.0000000000
     19555       169  SAPE      H18Z           37.4061865236       -2.7833078776       -0.2243910609  MEMB      169             0.0000000000
     19556       170  OSM       N               8.4707185595      -33.5419100936      -21.1211764939  MEMB      170             0.0000000000
     19557       170  OSM       C15             9.6316552652      -32.6615173940      -20.7971435497  MEMB      170             0.0000000000
     19558       170  OSM       H15A           10.2380123418      -32.5096304197      -21.6757395336  MEMB      170             0.0000000000
     19559       170  OSM       H15B           10.2886981578      -33.1306539499      -20.0675105062  MEMB      170             0.0000000000
     19560       170  OSM       H15C            9.2973634352      -31.6757976681      -20.4479926339  MEMB      170             0.0000000000
     19561       170  OSM       C14             7.7711636971      -33.9654959732      -19.8577060051  MEMB      170             0.0000000000
     19562       170  OSM       H14A            7.5291501441      -33.1260097878      -19.2238317094  MEMB      170             0.0000000000
     19563       170  OSM       H14B            8.4196883012      -34.6504569249      -19.3201870378  MEMB      170             0.0000000000
     19564       170  OSM       H14C            6.8642234666      -34.5350954508      -20.0793697014  MEMB      170             0.0000000000
     19565       170  OSM       C13             7.5082595321      -32.7158537860      -21.9131705632  MEMB      170             0.0000000000
     19566       170  OSM       H13A            7.9192469470      -32.3585399935      -22.8404350852  MEMB      170             0.0000000000
     19567       170  OSM       H13B            7.2755086456      -31.8147449571      -21.3307258023  MEMB      170             0.0000000000
     19568       170  OSM       H13C            6.5675875666      -33.2277382014      -22.0828282867  MEMB      170             0.0000000000
     19569       170  OSM       C12             8.9439130370      -34.8207372506      -21.7580780520  MEMB      170             0.0000000000
     19570       170  OSM       H12A            9.3594460439      -34.6594669668      -22.7383368343  MEMB      170             0.0000000000
     19571       170  OSM       H12B            8.1098454887      -35.5144136276      -21.8906481025  MEMB      170             0.0000000000
     19572       170  OSM       C11            10.0061354230      -35.5488771284      -20.9105450264  MEMB      170             0.0000000000
     19573       170  OSM       H11A            9.8223126949      -36.6336283588      -21.1208653225  MEMB      170             0.0000000000
     19574       170  OSM       H11B            9.8579110956      -35.4417013175      -19.8165707003  MEMB      170             0.0000000000
     19575       170  OSM       P              12.2962782284      -36.1665990011      -21.7903826742  MEMB      170             0.0000000000
     19576       170  OSM       O13            11.7491995606      -36.5448735213      -23.1076574950  MEMB      170             0.0000000000
     19577       170  OSM       O14            13.7102299451      -35.7235726564      -21.7647304277  MEMB      170             0.0000000000
     19578       170  OSM       O11            12.0252336620      -37.3634356558      -20.7739888562  MEMB      170             0.0000000000
     19579       170  OSM       O12            11.3246229363      -35.0737557877      -21.2181014030  MEMB      170             0.0000000000
     19580       170  OSM       C1S            12.8641788697      -37.5700477949      -19.6349473233  MEMB      170             0.0000000000
     19581       170  OSM       H1S            13.7781168336      -36.9460175487      -19.6793095923  MEMB      170             0.0000000000
     19582       170  OSM       H1T            13.2124438125      -38.6127055237      -19.6903017031  MEMB      170             0.0000000000
     19583       170  OSM       NF             13.0566964750      -37.3480172238      -17.1335365138  MEMB      170             0.0000000000
     19584       170  OSM       HNF            12.8840561586      -38.0276520981      -16.4291698152  MEMB      170             0.0000000000
     19585       170  OSM       C2S            12.1546762843      -37.3321404331      -18.2471786976  MEMB      170             0.0000000000
     19586       170  OSM       H2S            11.6765738366      -36.3264310293      -18.3011650294  MEMB      170             0.0000000000
     19587       170  OSM       C3S            11.0769130015      -38.3893462659      -17.9550465386  MEMB      170             0.0000000000
     19588       170  OSM       H3S            11.5942798937      -39.2762944461      -17.4983945610  MEMB      170             0.0000000000
     19589       170  OSM       O3             10.4220455810      -38.8066987334      -19.1385207135  MEMB      170             0.0000000000
     19590       170  OSM       HO3            10.8490299314      -38.1940240781      -19.7709401054  MEMB      170             0.0000000000
     19591       170  OSM       C4S            10.1785193954      -37.8329740835      -16.8678217905  MEMB      170             0.0000000000
     19592       170  OSM       H4S            10.6938922709      -37.8396283400      -15.9052128175  MEMB      170             0.0000000000
     19593       170  OSM       C5S             8.9465357190      -37.2883738740      -16.8950845535  MEMB      170             0.0000000000
     19594       170  OSM       H5S             8.4416941410      -37.1467044466      -17.8654738157  MEMB      170             0.0000000000
     19595       170  OSM       C6S             8.2185020819      -36.7706775446      -15.6659542245  MEMB      170             0.0000000000
     19596       170  OSM       H6S             7.3922812453      -37.4617460458      -15.3830208468  MEMB      170             0.0000000000
     19597       170  OSM       H6T             7.7305848444      -35.8039953983      -15.9237275104  MEMB      170             0.0000000000
     19598       170  OSM       C7S             9.1181233703      -36.5040827531      -14.4271955604  MEMB      170             0.0000000000
     19599       170  OSM       H7S             9.7981767412      -35.6540783450      -14.6613382745  MEMB      170             0.0000000000
     19600       170  OSM       H7T             9.7420947792      -37.3883834952      -14.2034043249  MEMB      170             0.0000000000
     19601       170  OSM       C8S             8.3811434715      -36.2236780913      -13.1082058879  MEMB      170             0.0000000000
     19602       170  OSM       H8S             7.8660046487      -37.1544073168      -12.7979731863  MEMB      170             0.0000000000
     19603       170  OSM       H8T             7.5699782823      -35.5010317890      -13.2854766486  MEMB      170             0.0000000000
     19604       170  OSM       C9S             9.3140186297      -35.7331197607      -11.9675554487  MEMB      170             0.0000000000
     19605       170  OSM       H9S             9.1964940187      -34.6330633384      -11.8572732848  MEMB      170             0.0000000000
     19606       170  OSM       H9T            10.3730791092      -35.9197807320      -12.2599125206  MEMB      170             0.0000000000
     19607       170  OSM       C10S            9.0317516971      -36.4275641178      -10.6205163543  MEMB      170             0.0000000000
     19608       170  OSM       H10S            9.6300343733      -37.3578033961      -10.5283048583  MEMB      170             0.0000000000
     19609       170  OSM       H10T            7.9564900277      -36.7129374403      -10.6363842063  MEMB      170             0.0000000000
     19610       170  OSM       C11S            9.2522608566      -35.6169557250       -9.3322393808  MEMB      170             0.0000000000
     19611       170  OSM       H11S            8.5739665104      -36.0063872502       -8.5405286200  MEMB      170             0.0000000000
     19612       170  OSM       H11T            8.9580667068      -34.5642234174       -9.5503862697  MEMB      170             0.0000000000
     19613       170  OSM       C12S           10.7015438810      -35.6628449042       -8.8146077278  MEMB      170             0.0000000000
     19614       170  OSM       H12S           10.9422340222      -34.6913806345       -8.3250560789  MEMB      170             0.0000000000
     19615       170  OSM       H12T           11.3243369725      -35.7620684725       -9.7288253697  MEMB      170             0.0000000000
     19616       170  OSM       C13S           11.1144977430      -36.8024557807       -7.8416219387  MEMB      170             0.0000000000
     19617       170  OSM       H13S           12.2297058875      -36.8041332666       -7.7854767562  MEMB      170             0.0000000000
     19618       170  OSM       H13T           10.8060862479      -37.7833392523       -8.2596110732  MEMB      170             0.0000000000
     19619       170  OSM       C14S           10.5987300221      -36.6384435316       -6.3960148610  MEMB      170             0.0000000000
     19620       170  OSM       H14S            9.4916137120      -36.7454893582       -6.4269056315  MEMB      170             0.0000000000
     19621       170  OSM       H14T           10.8114413078      -35.6026386791       -6.0585402450  MEMB      170             0.0000000000
     19622       170  OSM       C15S           11.1647417961      -37.6343585339       -5.3417184984  MEMB      170             0.0000000000
     19623       170  OSM       H15S           11.1687983890      -38.6713494254       -5.7379371481  MEMB      170             0.0000000000
     19624       170  OSM       H15T           10.4661625113      -37.6068011463       -4.4721564182  MEMB      170             0.0000000000
     19625       170  OSM       C16S           12.5628233731      -37.2986124880       -4.7865937028  MEMB      170             0.0000000000
     19626       170  OSM       H16S           12.6178802946      -36.2042642496       -4.7488454322  MEMB      170             0.0000000000
     19627       170  OSM       H16T           13.3520269117      -37.6457234424       -5.4863608840  MEMB      170             0.0000000000
     19628       170  OSM       C17S           12.8499262069      -37.8077235043       -3.3553298280  MEMB      170             0.0000000000
     19629       170  OSM       H17S           12.6932468937      -38.9034703749       -3.3440666976  MEMB      170             0.0000000000
     19630       170  OSM       H17T           12.1001446641      -37.3934552180       -2.6496250315  MEMB      170             0.0000000000
     19631       170  OSM       C18S           14.2626155206      -37.4927441179       -2.8230994794  MEMB      170             0.0000000000
     19632       170  OSM       H18S           14.3122735981      -36.5073021492       -2.3210736087  MEMB      170             0.0000000000
     19633       170  OSM       H18T           14.9999065838      -37.5035172567       -3.6553393893  MEMB      170             0.0000000000
     19634       170  OSM       H18U           14.5795749731      -38.2462601404       -2.0716415895  MEMB      170             0.0000000000
     19635       170  OSM       C1F            14.1840922716      -36.6712358167      -17.0272433330  MEMB      170             0.0000000000
     19636       170  OSM       OF             14.6103486921      -35.8915921375      -17.8664057656  MEMB      170             0.0000000000
     19637       170  OSM       C2F            15.0137698250      -37.0867516266      -15.8752708010  MEMB      170             0.0000000000
     19638       170  OSM       H2F            15.9705897932      -37.4599187384      -16.2895603108  MEMB      170             0.0000000000
     19639       170  OSM       H2G            14.5239662854      -37.8993879671      -15.2955706022  MEMB      170             0.0000000000
     19640       170  OSM       C3F            15.3194340236      -35.9462671121      -14.9207637928  MEMB      170             0.0000000000
     19641       170  OSM       H3F            15.7421465104      -35.0749501937      -15.4610707874  MEMB      170             0.0000000000
     19642       170  OSM       H3G            16.1300745468      -36.3483418554      -14.2756758389  MEMB      170             0.0000000000
     19643       170  OSM       C4F            14.1082371347      -35.5147472957      -14.0857585689  MEMB      170             0.0000000000
     19644       170  OSM       H4F            13.7066774007      -36.3907730374      -13.5297179117  MEMB      170             0.0000000000
     19645       170  OSM       H4G            13.3033791506      -35.1347878331      -14.7576626708  MEMB      170             0.0000000000
     19646       170  OSM       C5F            14.5013316543      -34.4225391801      -13.0900257274  MEMB      170             0.0000000000
     19647       170  OSM       H5F            13.6744749775      -34.2376742330      -12.3730619314  MEMB      170             0.0000000000
     19648       170  OSM       H5G            14.6436309074      -33.4864762596      -13.6734863243  MEMB      170             0.0000000000
     19649       170  OSM       C6F            15.8180267128      -34.7402066614      -12.3606116164  MEMB      170             0.0000000000
     19650       170  OSM       H6F            16.6215566315      -34.2060409411      -12.9164850753  MEMB      170             0.0000000000
     19651       170  OSM       H6G            16.0599074045      -35.8251371641      -12.3855157030  MEMB      170             0.0000000000
     19652       170  OSM       C7F            15.8445631953      -34.3537898990      -10.8838439420  MEMB      170             0.0000000000
     19653       170  OSM       H7F            15.5633465976      -33.2837107837      -10.7801534174  MEMB      170             0.0000000000
     19654       170  OSM       H7G            16.8895988368      -34.4528369333      -10.5154544976  MEMB      170             0.0000000000
     19655       170  OSM       C8F            15.0243108233      -35.3012347140      -10.0003179938  MEMB      170             0.0000000000
     19656       170  OSM       H8F            15.6806348146      -35.6635010045       -9.1779382838  MEMB      170             0.0000000000
     19657       170  OSM       H8G            14.7201221221      -36.2032790511      -10.5743646951  MEMB      170             0.0000000000
     19658       170  OSM       C9F            13.8240250517      -34.6152688726       -9.4352452270  MEMB      170             0.0000000000
     19659       170  OSM       H9F            12.9152537905      -34.6826553620      -10.0495880049  MEMB      170             0.0000000000
     19660       170  OSM       C10F           13.8457061788      -33.7954274638       -8.3765803790  MEMB      170             0.0000000000
     19661       170  OSM       H10F           12.9009320254      -33.3381325143       -8.0436667816  MEMB      170             0.0000000000
     19662       170  OSM       C11F           15.0563008710      -33.4092338230       -7.5664827416  MEMB      170             0.0000000000
     19663       170  OSM       H11F           15.5827019345      -32.5628233694       -8.0605752892  MEMB      170             0.0000000000
     19664       170  OSM       H11G           15.7885453618      -34.2436787114       -7.4900600270  MEMB      170             0.0000000000
     19665       170  OSM       C12F           14.6144900019      -32.9977859945       -6.1505546724  MEMB      170             0.0000000000
     19666       170  OSM       H12F           13.7500385466      -32.2971950001       -6.1986202655  MEMB      170             0.0000000000
     19667       170  OSM       H12G           15.4469728693      -32.4598118725       -5.6454247818  MEMB      170             0.0000000000
     19668       170  OSM       C13F           14.2477219689      -34.2458477998       -5.3372597309  MEMB      170             0.0000000000
     19669       170  OSM       H13F           15.1991167743      -34.8037402484       -5.1666914029  MEMB      170             0.0000000000
     19670       170  OSM       H13G           13.5980658910      -34.8972338514       -5.9597211861  MEMB      170             0.0000000000
     19671       170  OSM       C14F           13.5903783915      -34.0098438450       -3.9653188802  MEMB      170             0.0000000000
     19672       170  OSM       H14F           14.1801887897      -33.2700380393       -3.4009047694  MEMB      170             0.0000000000
     19673       170  OSM       H14G           13.6868332545      -34.9540376916       -3.3975872576  MEMB      170             0.0000000000
     19674       170  OSM       C15F           12.0820049621      -33.6857336032       -3.9515848488  MEMB      170             0.0000000000
     19675       170  OSM       H15F           11.5014180005      -34.4837471662       -4.4531010520  MEMB      170             0.0000000000
     19676       170  OSM       H15G           11.8805630936      -32.7691839352       -4.5414522662  MEMB      170             0.0000000000
     19677       170  OSM       C16F           11.5323535965      -33.5354225049       -2.5186183884  MEMB      170             0.0000000000
     19678       170  OSM       H16F           10.6120408470      -32.9257728610       -2.5427799297  MEMB      170             0.0000000000
     19679       170  OSM       H16G           12.2676812218      -32.9936761635       -1.8859402214  MEMB      170             0.0000000000
     19680       170  OSM       C17F           11.1455983957      -34.8680002158       -1.8622840651  MEMB      170             0.0000000000
     19681       170  OSM       H17F           12.0678865972      -35.4790357893       -1.7658054642  MEMB      170             0.0000000000
     19682       170  OSM       H17G           10.4505280160      -35.4124944743       -2.5414881467  MEMB      170             0.0000000000
     19683       170  OSM       C18F           10.4848265070      -34.7304564725       -0.4837244807  MEMB      170             0.0000000000
     19684       170  OSM       H18F           10.2341944589      -35.7343866031       -0.0765085213  MEMB      170             0.0000000000
     19685       170  OSM       H18G            9.5536732465      -34.1285097287       -0.5487091803  MEMB      170             0.0000000000
     19686       170  OSM       H18H           11.1682019940      -34.2274863644        0.2330142752  MEMB      170             0.0000000000
     19687       171  SLPC      N              33.5858555356       18.3883726549      -18.6928383679  MEMB      171             0.0000000000
     19688       171  SLPC      C13            33.2342114237       16.9414761203      -18.8376981921  MEMB      171             0.0000000000
     19689       171  SLPC      H13A           32.6187733918       16.6172855766      -17.9985815408  MEMB      171             0.0000000000
     19690       171  SLPC      H13B           32.6706871480       16.7543222166      -19.7354207615  MEMB      171             0.0000000000
     19691       171  SLPC      H13C           34.1236704748       16.3247716033      -18.8457132288  MEMB      171             0.0000000000
     19692       171  SLPC      C14            34.5770301094       18.7971592361      -19.7206849884  MEMB      171             0.0000000000
     19693       171  SLPC      H14A           34.7216574904       19.8800179066      -19.7276018904  MEMB      171             0.0000000000
     19694       171  SLPC      H14B           35.5266075968       18.3039918475      -19.5399782957  MEMB      171             0.0000000000
     19695       171  SLPC      H14C           34.2397476865       18.5624071970      -20.7233443113  MEMB      171             0.0000000000
     19696       171  SLPC      C15            34.2288622529       18.5464086250      -17.3488031139  MEMB      171             0.0000000000
     19697       171  SLPC      H15A           33.4691877743       18.3793002075      -16.5838407694  MEMB      171             0.0000000000
     19698       171  SLPC      H15B           35.0110766285       17.8146726110      -17.2049827076  MEMB      171             0.0000000000
     19699       171  SLPC      H15C           34.6424715744       19.5235164353      -17.2012726983  MEMB      171             0.0000000000
     19700       171  SLPC      C12            32.3020433174       19.1947765297      -18.8009974046  MEMB      171             0.0000000000
     19701       171  SLPC      H12A           31.9498272813       19.1703733730      -19.8282372431  MEMB      171             0.0000000000
     19702       171  SLPC      H12B           32.5047119010       20.2249839657      -18.5481649723  MEMB      171             0.0000000000
     19703       171  SLPC      C11            31.1383566524       18.7309804157      -17.9006016495  MEMB      171             0.0000000000
     19704       171  SLPC      H11A           30.7252442133       17.7690092429      -18.2842891054  MEMB      171             0.0000000000
     19705       171  SLPC      H11B           30.3295703678       19.4962635117      -17.9380729868  MEMB      171             0.0000000000
     19706       171  SLPC      P              30.7339617044       17.9081438218      -15.4815258314  MEMB      171             0.0000000000
     19707       171  SLPC      O13            30.0505745322       16.7003267639      -16.0067022888  MEMB      171             0.0000000000
     19708       171  SLPC      O14            31.5779876029       17.7812904260      -14.2770949148  MEMB      171             0.0000000000
     19709       171  SLPC      O12            31.6122051060       18.5833043807      -16.5726740799  MEMB      171             0.0000000000
     19710       171  SLPC      O11            29.6795962313       19.0355765760      -15.3187581033  MEMB      171             0.0000000000
     19711       171  SLPC      C1             29.9711694416       20.4271864302      -15.3312779108  MEMB      171             0.0000000000
     19712       171  SLPC      HA             31.0517145313       20.6563728905      -15.4319310166  MEMB      171             0.0000000000
     19713       171  SLPC      HB             29.4988687123       20.8840043468      -16.2315511067  MEMB      171             0.0000000000
     19714       171  SLPC      C2             29.3420909548       21.0647770073      -14.0681018789  MEMB      171             0.0000000000
     19715       171  SLPC      HS             29.4699438376       22.1680374897      -14.1447796880  MEMB      171             0.0000000000
     19716       171  SLPC      O21            29.8858933032       20.6020698414      -12.8077586986  MEMB      171             0.0000000000
     19717       171  SLPC      C21            31.2158735514       20.5682480059      -12.6829119209  MEMB      171             0.0000000000
     19718       171  SLPC      O22            32.0204364436       21.0577842445      -13.4502899827  MEMB      171             0.0000000000
     19719       171  SLPC      C22            31.6090046488       19.9185778599      -11.3419042658  MEMB      171             0.0000000000
     19720       171  SLPC      H2R            30.7787228892       19.2798054535      -11.0128072593  MEMB      171             0.0000000000
     19721       171  SLPC      H2S            32.4620221067       19.2420332155      -11.5585707770  MEMB      171             0.0000000000
     19722       171  SLPC      C3             27.8167600010       20.7537580412      -14.1299961043  MEMB      171             0.0000000000
     19723       171  SLPC      HX             27.4756466584       21.0705568604      -15.1371722495  MEMB      171             0.0000000000
     19724       171  SLPC      HY             27.2755923478       21.3244518063      -13.3422201966  MEMB      171             0.0000000000
     19725       171  SLPC      O31            27.5633752266       19.3576641353      -14.0582728458  MEMB      171             0.0000000000
     19726       171  SLPC      C31            27.0109581130       18.9625632999      -12.9533154911  MEMB      171             0.0000000000
     19727       171  SLPC      O32            26.2180682316       19.6095613988      -12.3003587336  MEMB      171             0.0000000000
     19728       171  SLPC      C32            27.5178862353       17.5817295446      -12.6419180655  MEMB      171             0.0000000000
     19729       171  SLPC      H2X            27.5026381898       17.0012226769      -13.5805422439  MEMB      171             0.0000000000
     19730       171  SLPC      H2Y            26.8469993697       17.1170483052      -11.9057338649  MEMB      171             0.0000000000
     19731       171  SLPC      C23            32.0024747991       20.9190267415      -10.2130271768  MEMB      171             0.0000000000
     19732       171  SLPC      H3R            32.0334699106       21.9564861554      -10.6132869975  MEMB      171             0.0000000000
     19733       171  SLPC      H3S            33.0224787478       20.6624523091       -9.8509105422  MEMB      171             0.0000000000
     19734       171  SLPC      C24            31.0485990929       20.9343957671       -9.0122145504  MEMB      171             0.0000000000
     19735       171  SLPC      H4R            31.3566526996       21.7140698197       -8.2826115622  MEMB      171             0.0000000000
     19736       171  SLPC      H4S            31.0852119610       19.9546988552       -8.4835879734  MEMB      171             0.0000000000
     19737       171  SLPC      C25            29.6147564471       21.1693649722       -9.4642802160  MEMB      171             0.0000000000
     19738       171  SLPC      H5R            29.2858230353       20.1665165578       -9.8108366029  MEMB      171             0.0000000000
     19739       171  SLPC      H5S            29.5735894341       21.8416993075      -10.3482753091  MEMB      171             0.0000000000
     19740       171  SLPC      C26            28.6715836948       21.6654411314       -8.3577515312  MEMB      171             0.0000000000
     19741       171  SLPC      H6R            29.0677562794       22.5754129836       -7.8606413150  MEMB      171             0.0000000000
     19742       171  SLPC      H6S            28.6500837101       20.8713179254       -7.5843536126  MEMB      171             0.0000000000
     19743       171  SLPC      C27            27.2300986477       21.9008666335       -8.8535940809  MEMB      171             0.0000000000
     19744       171  SLPC      H7R            27.1006955564       22.7547089789       -9.5325624324  MEMB      171             0.0000000000
     19745       171  SLPC      H7S            26.5595726337       22.1450450723       -7.9927319650  MEMB      171             0.0000000000
     19746       171  SLPC      C28            26.7664460220       20.7476066260       -9.7137472446  MEMB      171             0.0000000000
     19747       171  SLPC      H8R            27.4868706230       20.3701459109      -10.4530212339  MEMB      171             0.0000000000
     19748       171  SLPC      H8S            25.8578020876       21.0530757204      -10.2937173043  MEMB      171             0.0000000000
     19749       171  SLPC      C29            26.3984481875       19.7202877616       -8.7267113193  MEMB      171             0.0000000000
     19750       171  SLPC      H9R            25.6755418894       20.1835451399       -8.0748536630  MEMB      171             0.0000000000
     19751       171  SLPC      C210           26.8102874371       18.5061741692       -8.3915542082  MEMB      171             0.0000000000
     19752       171  SLPC      H10R           26.1654845160       17.9899776387       -7.6614988936  MEMB      171             0.0000000000
     19753       171  SLPC      C211           27.8657604262       17.6491672010       -9.0012000237  MEMB      171             0.0000000000
     19754       171  SLPC      H11R           28.7593626836       18.2750081421       -9.2034475637  MEMB      171             0.0000000000
     19755       171  SLPC      H11S           27.5182738427       17.2456219973       -9.9602179727  MEMB      171             0.0000000000
     19756       171  SLPC      C212           28.1534037101       16.5266459262       -8.0389072952  MEMB      171             0.0000000000
     19757       171  SLPC      H12R           27.7115243925       15.5575986339       -8.3202697468  MEMB      171             0.0000000000
     19758       171  SLPC      C213           28.8897550907       16.6378707291       -6.9170878587  MEMB      171             0.0000000000
     19759       171  SLPC      H13R           29.0041213468       15.7566927836       -6.2676292809  MEMB      171             0.0000000000
     19760       171  SLPC      C214           29.5628027102       17.9113664732       -6.4489860268  MEMB      171             0.0000000000
     19761       171  SLPC      H14R           29.7018769968       18.6189952944       -7.2982269897  MEMB      171             0.0000000000
     19762       171  SLPC      H14S           30.5658788382       17.5897266285       -6.1400866278  MEMB      171             0.0000000000
     19763       171  SLPC      C215           29.0128302509       18.7765797705       -5.2829617617  MEMB      171             0.0000000000
     19764       171  SLPC      H15R           29.6232565518       19.7084269065       -5.2173515108  MEMB      171             0.0000000000
     19765       171  SLPC      H15S           29.1547827555       18.2426619948       -4.3232665615  MEMB      171             0.0000000000
     19766       171  SLPC      C216           27.5406319524       19.1548003807       -5.4617409124  MEMB      171             0.0000000000
     19767       171  SLPC      H16R           26.9687491911       18.2241751192       -5.6691445612  MEMB      171             0.0000000000
     19768       171  SLPC      H16S           27.4301958028       19.8336861836       -6.3265778833  MEMB      171             0.0000000000
     19769       171  SLPC      C217           26.8862989791       19.8774489600       -4.2936117643  MEMB      171             0.0000000000
     19770       171  SLPC      H17R           27.1691471024       19.3677067262       -3.3583397760  MEMB      171             0.0000000000
     19771       171  SLPC      H17S           25.7985809380       19.6717309897       -4.3732364599  MEMB      171             0.0000000000
     19772       171  SLPC      C218           27.1677736579       21.3960220215       -4.3141812553  MEMB      171             0.0000000000
     19773       171  SLPC      H18R           27.8978622861       21.6507058614       -5.1122332962  MEMB      171             0.0000000000
     19774       171  SLPC      H18S           27.5945925698       21.7690038332       -3.3680924681  MEMB      171             0.0000000000
     19775       171  SLPC      H18T           26.2465932268       21.9876613497       -4.5056635128  MEMB      171             0.0000000000
     19776       171  SLPC      C33            28.9688143819       17.5732929682      -12.1469126219  MEMB      171             0.0000000000
     19777       171  SLPC      H3X            29.0661989070       18.1972112253      -11.2442856221  MEMB      171             0.0000000000
     19778       171  SLPC      H3Y            29.6102334917       18.0420791462      -12.9166449195  MEMB      171             0.0000000000
     19779       171  SLPC      C34            29.4267096837       16.1311092664      -11.9088306477  MEMB      171             0.0000000000
     19780       171  SLPC      H4X            29.2977829085       15.6245879236      -12.8921092842  MEMB      171             0.0000000000
     19781       171  SLPC      H4Y            28.7497253169       15.6472625238      -11.1714801735  MEMB      171             0.0000000000
     19782       171  SLPC      C35            30.8949686761       15.9478332889      -11.4991770820  MEMB      171             0.0000000000
     19783       171  SLPC      H5X            31.5314459692       16.5133241031      -12.2163321206  MEMB      171             0.0000000000
     19784       171  SLPC      H5Y            31.1542115971       14.8691027223      -11.5948248685  MEMB      171             0.0000000000
     19785       171  SLPC      C36            31.1945405644       16.4137562007      -10.0749825768  MEMB      171             0.0000000000
     19786       171  SLPC      H6X            30.6217432950       15.7882373215       -9.3558429416  MEMB      171             0.0000000000
     19787       171  SLPC      H6Y            30.8348079897       17.4584378067       -9.9515394965  MEMB      171             0.0000000000
     19788       171  SLPC      C37            32.6862380349       16.3790854009       -9.6926459600  MEMB      171             0.0000000000
     19789       171  SLPC      H7X            33.2996390144       16.8356817473      -10.4995354078  MEMB      171             0.0000000000
     19790       171  SLPC      H7Y            33.0081362236       15.3211666465       -9.5705311296  MEMB      171             0.0000000000
     19791       171  SLPC      C38            32.8874854476       17.1535270118       -8.3826617517  MEMB      171             0.0000000000
     19792       171  SLPC      H8X            32.2048598652       16.6672033607       -7.6501734098  MEMB      171             0.0000000000
     19793       171  SLPC      H8Y            32.5387036625       18.2013092404       -8.5260604780  MEMB      171             0.0000000000
     19794       171  SLPC      C39            34.3112111159       17.1818510003       -7.8020967672  MEMB      171             0.0000000000
     19795       171  SLPC      H9X            34.9964956637       17.7350994171       -8.4853822875  MEMB      171             0.0000000000
     19796       171  SLPC      H9Y            34.6972776804       16.1428241053       -7.7040440781  MEMB      171             0.0000000000
     19797       171  SLPC      C310           34.3771823236       17.8550041675       -6.4207091301  MEMB      171             0.0000000000
     19798       171  SLPC      H10X           34.4131967678       18.9633616600       -6.5522306505  MEMB      171             0.0000000000
     19799       171  SLPC      H10Y           35.3035072521       17.5483017825       -5.8868565115  MEMB      171             0.0000000000
     19800       171  SLPC      C311           33.1844905928       17.5795944747       -5.5029900496  MEMB      171             0.0000000000
     19801       171  SLPC      H11X           32.8781755121       16.5095611790       -5.4908107137  MEMB      171             0.0000000000
     19802       171  SLPC      H11Y           32.3502634925       18.2022208995       -5.8920081945  MEMB      171             0.0000000000
     19803       171  SLPC      C312           33.4975389669       18.0749075340       -4.1023082543  MEMB      171             0.0000000000
     19804       171  SLPC      H12X           33.8457834720       19.1260042515       -4.2387898740  MEMB      171             0.0000000000
     19805       171  SLPC      H12Y           34.3536978081       17.5307818608       -3.6527009094  MEMB      171             0.0000000000
     19806       171  SLPC      C313           32.3057800126       18.0689078101       -3.1457371515  MEMB      171             0.0000000000
     19807       171  SLPC      H13X           32.0804300587       17.0627723082       -2.7350424702  MEMB      171             0.0000000000
     19808       171  SLPC      H13Y           31.4017710405       18.4379098690       -3.6830945173  MEMB      171             0.0000000000
     19809       171  SLPC      C314           32.6444554239       19.0792385337       -2.0625815727  MEMB      171             0.0000000000
     19810       171  SLPC      H14X           32.8936085110       19.9609499317       -2.6868853502  MEMB      171             0.0000000000
     19811       171  SLPC      H14Y           33.5092221720       18.7656703455       -1.4419891135  MEMB      171             0.0000000000
     19812       171  SLPC      C315           31.4912638787       19.5893878407       -1.2419590934  MEMB      171             0.0000000000
     19813       171  SLPC      H15X           30.9297168580       18.6813302150       -0.9273095644  MEMB      171             0.0000000000
     19814       171  SLPC      H15Y           30.8850082790       20.1756280870       -1.9590134159  MEMB      171             0.0000000000
     19815       171  SLPC      C316           31.7777974672       20.4312169255        0.0258973261  MEMB      171             0.0000000000
     19816       171  SLPC      H16X           32.5931754759       20.0076439187        0.6425505138  MEMB      171             0.0000000000
     19817       171  SLPC      H16Y           30.8488904424       20.2601939065        0.5843745859  MEMB      171             0.0000000000
     19818       171  SLPC      C317           31.7697089823       21.9806749317       -0.0002117533  MEMB      171             0.0000000000
     19819       171  SLPC      H17X           32.7343858739       22.3872366240       -0.3556832602  MEMB      171             0.0000000000
     19820       171  SLPC      H17Y           31.7141383298       22.3321102133        1.0501105620  MEMB      171             0.0000000000
     19821       171  SLPC      C318           30.5908267393       22.6152512013       -0.7542350891  MEMB      171             0.0000000000
     19822       171  SLPC      H18X           30.4772471430       22.1537888067       -1.7581765350  MEMB      171             0.0000000000
     19823       171  SLPC      H18Y           30.6896008983       23.6949684819       -0.9114682657  MEMB      171             0.0000000000
     19824       171  SLPC      H18Z           29.6520993612       22.4687331391       -0.1915550716  MEMB      171             0.0000000000
     19825       172  CHL1      C3             26.6739930249       24.9253886155      -17.6203105713  MEMB      172             0.0000000000
     19826       172  CHL1      H3             26.7042537056       26.0209938500      -17.6882798581  MEMB      172             0.0000000000
     19827       172  CHL1      O3             26.5280479535       24.4428550656      -18.9401202102  MEMB      172             0.0000000000
     19828       172  CHL1      H3'            26.4384333068       23.4910684344      -18.8466861067  MEMB      172             0.0000000000
     19829       172  CHL1      C4             27.9665302581       24.4185939860      -16.9565466922  MEMB      172             0.0000000000
     19830       172  CHL1      H4A            27.9512573652       23.3139908016      -16.8467903012  MEMB      172             0.0000000000
     19831       172  CHL1      H4B            28.8326191296       24.6359631949      -17.6199187898  MEMB      172             0.0000000000
     19832       172  CHL1      C5             28.1052232633       25.0748522736      -15.5979745934  MEMB      172             0.0000000000
     19833       172  CHL1      C6             29.2194682774       25.7373161915      -15.2735773094  MEMB      172             0.0000000000
     19834       172  CHL1      H6             30.0387418069       25.7899562168      -16.0051030524  MEMB      172             0.0000000000
     19835       172  CHL1      C7             29.4770303218       26.3352036247      -13.9239115398  MEMB      172             0.0000000000
     19836       172  CHL1      H7A            30.5128598157       26.0939164098      -13.6078175412  MEMB      172             0.0000000000
     19837       172  CHL1      H7B            29.4050431635       27.4417157674      -13.9250685297  MEMB      172             0.0000000000
     19838       172  CHL1      C8             28.5418780947       25.7206041997      -12.8625183185  MEMB      172             0.0000000000
     19839       172  CHL1      H8             28.8987664106       24.6728227654      -12.7377190023  MEMB      172             0.0000000000
     19840       172  CHL1      C14            28.7307644914       26.4362935213      -11.5372304192  MEMB      172             0.0000000000
     19841       172  CHL1      H14            28.2519710471       27.4441691129      -11.6118709201  MEMB      172             0.0000000000
     19842       172  CHL1      C15            30.1903268578       26.6809011814      -11.0638979448  MEMB      172             0.0000000000
     19843       172  CHL1      H15A           30.7968872257       25.7761546540      -11.2910569853  MEMB      172             0.0000000000
     19844       172  CHL1      H15B           30.6658605791       27.5440779123      -11.5678507369  MEMB      172             0.0000000000
     19845       172  CHL1      C16            30.0611288817       26.8645028554       -9.5369575584  MEMB      172             0.0000000000
     19846       172  CHL1      H16A           30.7443595602       26.1796714070       -8.9927597066  MEMB      172             0.0000000000
     19847       172  CHL1      H16B           30.2942180675       27.9112581603       -9.2612279309  MEMB      172             0.0000000000
     19848       172  CHL1      C17            28.5589704527       26.5622064412       -9.2119303338  MEMB      172             0.0000000000
     19849       172  CHL1      H17            28.0924302656       27.5544998559       -9.3380881243  MEMB      172             0.0000000000
     19850       172  CHL1      C13            28.0855223404       25.6994755177      -10.3847896140  MEMB      172             0.0000000000
     19851       172  CHL1      C18            28.8061603301       24.3717354958      -10.1523534068  MEMB      172             0.0000000000
     19852       172  CHL1      H18A           28.4828288035       24.0398540552       -9.1534770426  MEMB      172             0.0000000000
     19853       172  CHL1      H18B           28.4755394519       23.6299810051      -10.9080209220  MEMB      172             0.0000000000
     19854       172  CHL1      H18C           29.9071279432       24.3717774161      -10.1040776374  MEMB      172             0.0000000000
     19855       172  CHL1      C12            26.5765124115       25.4345975940      -10.6469635782  MEMB      172             0.0000000000
     19856       172  CHL1      H12A           26.2560652956       24.6116374900       -9.9754744119  MEMB      172             0.0000000000
     19857       172  CHL1      H12B           25.9220655186       26.2669009544      -10.3792034131  MEMB      172             0.0000000000
     19858       172  CHL1      C11            26.2299556190       24.9770649727      -12.0858239127  MEMB      172             0.0000000000
     19859       172  CHL1      H11A           26.4155087494       23.8882534569      -12.0060576692  MEMB      172             0.0000000000
     19860       172  CHL1      H11B           25.1440340500       25.1324479692      -12.2705735336  MEMB      172             0.0000000000
     19861       172  CHL1      C9             27.0553026342       25.6061378981      -13.2667852832  MEMB      172             0.0000000000
     19862       172  CHL1      H9             26.6176108026       26.5908436340      -13.4168586671  MEMB      172             0.0000000000
     19863       172  CHL1      C10            26.8662870782       24.9617691356      -14.6758907961  MEMB      172             0.0000000000
     19864       172  CHL1      C19            26.7132196023       23.4995701337      -14.3779785799  MEMB      172             0.0000000000
     19865       172  CHL1      H19A           25.7477778390       23.2810898544      -13.8767428878  MEMB      172             0.0000000000
     19866       172  CHL1      H19B           26.7237541147       22.8772197000      -15.2848252043  MEMB      172             0.0000000000
     19867       172  CHL1      H19C           27.5637627256       23.2298060717      -13.7153292243  MEMB      172             0.0000000000
     19868       172  CHL1      C1             25.5671212363       25.3830586780      -15.4355161125  MEMB      172             0.0000000000
     19869       172  CHL1      H1A            24.6750878127       25.1842820673      -14.8061598056  MEMB      172             0.0000000000
     19870       172  CHL1      H1B            25.5568260937       26.4702179917      -15.6569715821  MEMB      172             0.0000000000
     19871       172  CHL1      C2             25.4286271786       24.6350009608      -16.7833201888  MEMB      172             0.0000000000
     19872       172  CHL1      H2A            24.5381376645       24.9953374422      -17.3388157721  MEMB      172             0.0000000000
     19873       172  CHL1      H2B            25.3088742940       23.5411214875      -16.6445726536  MEMB      172             0.0000000000
     19874       172  CHL1      C20            28.2477061537       26.1716318987       -7.7566075761  MEMB      172             0.0000000000
     19875       172  CHL1      H20            28.8342703727       25.2799974352       -7.4438500924  MEMB      172             0.0000000000
     19876       172  CHL1      C21            26.7484011454       25.8219163894       -7.5778458710  MEMB      172             0.0000000000
     19877       172  CHL1      H21A           26.4202719496       25.8514337924       -6.5221866420  MEMB      172             0.0000000000
     19878       172  CHL1      H21B           26.5594664317       24.7918395268       -7.9361197926  MEMB      172             0.0000000000
     19879       172  CHL1      H21C           26.0980749116       26.5103036433       -8.1498340056  MEMB      172             0.0000000000
     19880       172  CHL1      C22            28.7150677436       27.3334599701       -6.8645972772  MEMB      172             0.0000000000
     19881       172  CHL1      H22A           29.8141170818       27.2891740711       -6.8228000922  MEMB      172             0.0000000000
     19882       172  CHL1      H22B           28.4364555948       28.2887947949       -7.3662238145  MEMB      172             0.0000000000
     19883       172  CHL1      C23            28.1765898004       27.3988549367       -5.4420429537  MEMB      172             0.0000000000
     19884       172  CHL1      H23A           28.5748408643       28.3245407519       -4.9815986196  MEMB      172             0.0000000000
     19885       172  CHL1      H23B           27.0711453250       27.5113254790       -5.4761316375  MEMB      172             0.0000000000
     19886       172  CHL1      C24            28.5295789897       26.2849620036       -4.4602049933  MEMB      172             0.0000000000
     19887       172  CHL1      H24A           28.2941858742       25.2945797284       -4.9070737640  MEMB      172             0.0000000000
     19888       172  CHL1      H24B           29.6156605958       26.3118273173       -4.2226785236  MEMB      172             0.0000000000
     19889       172  CHL1      C25            27.6300515005       26.5447901276       -3.2326805198  MEMB      172             0.0000000000
     19890       172  CHL1      H25            27.3330877204       27.6244711483       -3.2769139284  MEMB      172             0.0000000000
     19891       172  CHL1      C26            26.3628374179       25.7069934795       -3.3332311489  MEMB      172             0.0000000000
     19892       172  CHL1      H26A           26.6324857442       24.6305179471       -3.3888022760  MEMB      172             0.0000000000
     19893       172  CHL1      H26B           25.7284219540       25.8869060896       -2.4416065304  MEMB      172             0.0000000000
     19894       172  CHL1      H26C           25.7974208689       25.9945993719       -4.2450953731  MEMB      172             0.0000000000
     19895       172  CHL1      C27            28.2575339199       26.4016242659       -1.8523331829  MEMB      172             0.0000000000
     19896       172  CHL1      H27A           27.5068693698       26.6396383845       -1.0689825063  MEMB      172             0.0000000000
     19897       172  CHL1      H27B           28.6709065137       25.3866258257       -1.6742239028  MEMB      172             0.0000000000
     19898       172  CHL1      H27C           29.0409049779       27.1782616206       -1.7573561732  MEMB      172             0.0000000000
     19899       173  POPC      N             -18.6861950333       34.2278015075      -18.0773379026  MEMB      173             0.0000000000
     19900       173  POPC      C12           -18.3165721192       34.6289568936      -19.5010645477  MEMB      173             0.0000000000
     19901       173  POPC      H12A          -18.7370809175       35.6042993017      -19.7150150991  MEMB      173             0.0000000000
     19902       173  POPC      H12B          -18.8070854232       33.9510872943      -20.1958796952  MEMB      173             0.0000000000
     19903       173  POPC      C13           -17.8497898574       33.0473415173      -17.6904435096  MEMB      173             0.0000000000
     19904       173  POPC      H13A          -17.8573459706       32.3282316388      -18.5109229668  MEMB      173             0.0000000000
     19905       173  POPC      H13B          -16.8035235039       33.3418903063      -17.6358494726  MEMB      173             0.0000000000
     19906       173  POPC      H13C          -18.1797674704       32.5974069405      -16.7707140927  MEMB      173             0.0000000000
     19907       173  POPC      C14           -18.4439671086       35.3567782979      -17.1196633446  MEMB      173             0.0000000000
     19908       173  POPC      H14A          -18.6520953872       35.0575304534      -16.0989243319  MEMB      173             0.0000000000
     19909       173  POPC      H14B          -17.4169277686       35.6928570178      -17.1728292808  MEMB      173             0.0000000000
     19910       173  POPC      H14C          -19.0714958223       36.2146767700      -17.3448273556  MEMB      173             0.0000000000
     19911       173  POPC      C15           -20.1297575043       33.8343737948      -18.0008906630  MEMB      173             0.0000000000
     19912       173  POPC      H15A          -20.4082413485       33.1015674454      -18.7556430700  MEMB      173             0.0000000000
     19913       173  POPC      H15B          -20.7894468940       34.6737843779      -18.2398273901  MEMB      173             0.0000000000
     19914       173  POPC      H15C          -20.4158061819       33.4450789151      -17.0353884659  MEMB      173             0.0000000000
     19915       173  POPC      C11           -16.8026196416       34.6181280942      -19.8592057983  MEMB      173             0.0000000000
     19916       173  POPC      H11A          -16.2611339293       35.1966991347      -19.0733362011  MEMB      173             0.0000000000
     19917       173  POPC      H11B          -16.6548053327       35.1554266473      -20.8206963545  MEMB      173             0.0000000000
     19918       173  POPC      P             -14.7724858929       32.9584567960      -19.9424336808  MEMB      173             0.0000000000
     19919       173  POPC      O13           -14.0870265266       33.6386163536      -21.0580625041  MEMB      173             0.0000000000
     19920       173  POPC      O14           -14.5944783641       31.5017030557      -19.8043903914  MEMB      173             0.0000000000
     19921       173  POPC      O12           -16.3176628273       33.2744137661      -20.0025794176  MEMB      173             0.0000000000
     19922       173  POPC      O11           -14.4494057420       33.6917162938      -18.5894565402  MEMB      173             0.0000000000
     19923       173  POPC      C1            -13.1688186977       34.2629842234      -18.3417219260  MEMB      173             0.0000000000
     19924       173  POPC      HA            -13.0196049903       35.1756177127      -18.9576944472  MEMB      173             0.0000000000
     19925       173  POPC      HB            -12.3625065786       33.5264038318      -18.5701547513  MEMB      173             0.0000000000
     19926       173  POPC      C2            -13.0634010014       34.6322553128      -16.8472971083  MEMB      173             0.0000000000
     19927       173  POPC      HS            -12.0188669493       34.9343976264      -16.5996821615  MEMB      173             0.0000000000
     19928       173  POPC      O21           -13.4770212723       33.5023149587      -16.0869481144  MEMB      173             0.0000000000
     19929       173  POPC      C21           -12.5750797682       32.6190320428      -15.8269303995  MEMB      173             0.0000000000
     19930       173  POPC      O22           -11.3799862998       32.6952058572      -16.0596597888  MEMB      173             0.0000000000
     19931       173  POPC      C22           -13.2789172847       31.4525233777      -15.1383324400  MEMB      173             0.0000000000
     19932       173  POPC      H2R           -12.5001902542       30.7579364618      -14.7751525733  MEMB      173             0.0000000000
     19933       173  POPC      H2S           -13.8858071889       30.9119578684      -15.8933432844  MEMB      173             0.0000000000
     19934       173  POPC      C3            -14.0011888662       35.7967317634      -16.4470174989  MEMB      173             0.0000000000
     19935       173  POPC      HX            -14.9738187454       35.5991665495      -16.9589987629  MEMB      173             0.0000000000
     19936       173  POPC      HY            -13.5866245097       36.7622742478      -16.8118646181  MEMB      173             0.0000000000
     19937       173  POPC      O31           -14.1483929724       35.7985374501      -15.0103733702  MEMB      173             0.0000000000
     19938       173  POPC      C31           -15.2542033270       36.3527233134      -14.5390861224  MEMB      173             0.0000000000
     19939       173  POPC      O32           -16.0274900967       37.0388198349      -15.1826242518  MEMB      173             0.0000000000
     19940       173  POPC      C32           -15.4366880987       35.9820112164      -13.0468763218  MEMB      173             0.0000000000
     19941       173  POPC      H2X           -14.6292071457       35.2876350621      -12.7429911527  MEMB      173             0.0000000000
     19942       173  POPC      H2Y           -16.4091413808       35.4579349476      -12.9705701734  MEMB      173             0.0000000000
     19943       173  POPC      C23           -14.1826223753       31.9300504304      -13.9720804137  MEMB      173             0.0000000000
     19944       173  POPC      H3R           -13.7481292705       32.8256421505      -13.4718208347  MEMB      173             0.0000000000
     19945       173  POPC      H3S           -14.2096020350       31.1307865000      -13.2062972808  MEMB      173             0.0000000000
     19946       173  POPC      C24           -15.6128297871       32.2427729707      -14.4458339728  MEMB      173             0.0000000000
     19947       173  POPC      H4R           -16.0111918318       31.3982193842      -15.0495564649  MEMB      173             0.0000000000
     19948       173  POPC      H4S           -15.5853760485       33.1361136161      -15.1115175991  MEMB      173             0.0000000000
     19949       173  POPC      C25           -16.5965311265       32.5409195992      -13.3111428101  MEMB      173             0.0000000000
     19950       173  POPC      H5R           -16.1023806808       33.2311288894      -12.5973313243  MEMB      173             0.0000000000
     19951       173  POPC      H5S           -16.8361951531       31.6047835082      -12.7620797196  MEMB      173             0.0000000000
     19952       173  POPC      C26           -17.9037655408       33.1568727188      -13.8378458539  MEMB      173             0.0000000000
     19953       173  POPC      H6R           -18.1962220126       32.5800353963      -14.7452045432  MEMB      173             0.0000000000
     19954       173  POPC      H6S           -17.7375291159       34.2066682466      -14.1571609280  MEMB      173             0.0000000000
     19955       173  POPC      C27           -19.0877539902       33.0790513895      -12.8597134900  MEMB      173             0.0000000000
     19956       173  POPC      H7R           -19.1778353380       32.0430809381      -12.4638539404  MEMB      173             0.0000000000
     19957       173  POPC      H7S           -20.0151591054       33.2738723874      -13.4491701093  MEMB      173             0.0000000000
     19958       173  POPC      C28           -19.0642374089       34.0987518052      -11.7009561437  MEMB      173             0.0000000000
     19959       173  POPC      H8R           -20.0892245363       34.1157524677      -11.2666455151  MEMB      173             0.0000000000
     19960       173  POPC      H8S           -18.8966948456       35.1153645548      -12.1204973512  MEMB      173             0.0000000000
     19961       173  POPC      C29           -18.0360193269       33.8120019112      -10.6330816638  MEMB      173             0.0000000000
     19962       173  POPC      H91           -16.9932994016       33.9632461830      -10.9433618347  MEMB      173             0.0000000000
     19963       173  POPC      C210          -18.2662357992       33.4547695299       -9.3578074785  MEMB      173             0.0000000000
     19964       173  POPC      H101          -17.4063888967       33.3245976985       -8.6829600130  MEMB      173             0.0000000000
     19965       173  POPC      C211          -19.6186688483       33.2625315782       -8.7226849956  MEMB      173             0.0000000000
     19966       173  POPC      H11R          -19.5801701606       32.4563778885       -7.9568938483  MEMB      173             0.0000000000
     19967       173  POPC      H11S          -20.3728367592       32.9366270257       -9.4752240934  MEMB      173             0.0000000000
     19968       173  POPC      C212          -20.1256441805       34.5591252569       -8.0636626168  MEMB      173             0.0000000000
     19969       173  POPC      H12R          -21.1975371341       34.4120245285       -7.8111666614  MEMB      173             0.0000000000
     19970       173  POPC      H12S          -20.0790727002       35.4097731692       -8.7799880707  MEMB      173             0.0000000000
     19971       173  POPC      C213          -19.3755264636       34.9330848746       -6.7752858429  MEMB      173             0.0000000000
     19972       173  POPC      H13R          -18.3818419780       35.3569463486       -7.0388323439  MEMB      173             0.0000000000
     19973       173  POPC      H13S          -19.1989498522       34.0116162900       -6.1750917604  MEMB      173             0.0000000000
     19974       173  POPC      C214          -20.1550628471       35.9431009424       -5.9186139766  MEMB      173             0.0000000000
     19975       173  POPC      H14R          -21.0739400531       35.4665968505       -5.5105843627  MEMB      173             0.0000000000
     19976       173  POPC      H14S          -20.4872712601       36.7811301688       -6.5713385309  MEMB      173             0.0000000000
     19977       173  POPC      C215          -19.3437717501       36.5237825475       -4.7528858353  MEMB      173             0.0000000000
     19978       173  POPC      H15R          -20.0108574093       37.1722667745       -4.1399662448  MEMB      173             0.0000000000
     19979       173  POPC      H15S          -18.5359215447       37.1675620998       -5.1675829258  MEMB      173             0.0000000000
     19980       173  POPC      C216          -18.6874991607       35.4812804533       -3.8350776060  MEMB      173             0.0000000000
     19981       173  POPC      H16R          -17.9423750276       34.8940867478       -4.4144346883  MEMB      173             0.0000000000
     19982       173  POPC      H16S          -19.4534797284       34.7607637397       -3.4815114758  MEMB      173             0.0000000000
     19983       173  POPC      C217          -17.9752823131       36.1716042467       -2.6606655539  MEMB      173             0.0000000000
     19984       173  POPC      H17R          -18.7258965705       36.6053461912       -1.9634534879  MEMB      173             0.0000000000
     19985       173  POPC      H17S          -17.3922181755       37.0218496696       -3.0871177720  MEMB      173             0.0000000000
     19986       173  POPC      C218          -16.9984354503       35.2951459692       -1.8834706693  MEMB      173             0.0000000000
     19987       173  POPC      H18R          -16.2593328968       34.8722204672       -2.5767538061  MEMB      173             0.0000000000
     19988       173  POPC      H18S          -17.4729237927       34.4412133264       -1.3716416755  MEMB      173             0.0000000000
     19989       173  POPC      H18T          -16.4486415836       35.8952703665       -1.1308704508  MEMB      173             0.0000000000
     19990       173  POPC      C33           -15.4698033840       37.2097224205      -12.0941615665  MEMB      173             0.0000000000
     19991       173  POPC      H3X           -16.1528685167       37.9639928502      -12.5547610845  MEMB      173             0.0000000000
     19992       173  POPC      H3Y           -14.4527032914       37.6415626139      -12.0223276531  MEMB      173             0.0000000000
     19993       173  POPC      C34           -15.9914176136       36.9907643225      -10.6560950887  MEMB      173             0.0000000000
     19994       173  POPC      H4X           -16.7745459045       36.2088511123      -10.6376809636  MEMB      173             0.0000000000
     19995       173  POPC      H4Y           -16.4807157858       37.9356507813      -10.3395092432  MEMB      173             0.0000000000
     19996       173  POPC      C35           -14.9139318212       36.7207934434       -9.5879665134  MEMB      173             0.0000000000
     19997       173  POPC      H5X           -14.1650354134       37.5438310229       -9.5922930880  MEMB      173             0.0000000000
     19998       173  POPC      H5Y           -14.4090865232       35.7806011347       -9.8830770174  MEMB      173             0.0000000000
     19999       173  POPC      C36           -15.4999395440       36.5698944041       -8.1651976000  MEMB      173             0.0000000000
     20000       173  POPC      H6X           -16.1018495773       35.6355808267       -8.1639682104  MEMB      173             0.0000000000
     20001       173  POPC      H6Y           -16.2024420875       37.4047935299       -7.9524830365  MEMB      173             0.0000000000
     20002       173  POPC      C37           -14.4697963831       36.5227610992       -7.0161141893  MEMB      173             0.0000000000
     20003       173  POPC      H7X           -14.1316596366       37.5533112489       -6.7698486172  MEMB      173             0.0000000000
     20004       173  POPC      H7Y           -13.5669496179       35.9669152675       -7.3347524438  MEMB      173             0.0000000000
     20005       173  POPC      C38           -14.9925064471       35.8265025119       -5.7408154036  MEMB      173             0.0000000000
     20006       173  POPC      H8X           -15.8503508929       36.3926924060       -5.3164652828  MEMB      173             0.0000000000
     20007       173  POPC      H8Y           -14.1853346030       35.8389437907       -4.9771169604  MEMB      173             0.0000000000
     20008       173  POPC      C39           -15.4132012304       34.3648771662       -5.9893386044  MEMB      173             0.0000000000
     20009       173  POPC      H9X           -14.8216103770       33.9544018793       -6.8368957011  MEMB      173             0.0000000000
     20010       173  POPC      H9Y           -16.4800915314       34.3531634374       -6.2967844580  MEMB      173             0.0000000000
     20011       173  POPC      C310          -15.2271166786       33.4285488462       -4.7887264644  MEMB      173             0.0000000000
     20012       173  POPC      H10X          -16.0674101347       32.7047365013       -4.7198245485  MEMB      173             0.0000000000
     20013       173  POPC      H10Y          -15.1837427489       34.0244180977       -3.8590738296  MEMB      173             0.0000000000
     20014       173  POPC      C311          -13.9052008621       32.6742676856       -4.8274570604  MEMB      173             0.0000000000
     20015       173  POPC      H11X          -13.1255974927       33.4617470316       -4.8413920411  MEMB      173             0.0000000000
     20016       173  POPC      H11Y          -13.8062467859       32.0050595150       -5.7059990828  MEMB      173             0.0000000000
     20017       173  POPC      C312          -13.5884015679       31.9482026686       -3.5502410475  MEMB      173             0.0000000000
     20018       173  POPC      H12X          -13.1127974631       30.9661568791       -3.7381707956  MEMB      173             0.0000000000
     20019       173  POPC      H12Y          -14.5258614554       31.7874410519       -2.9610259457  MEMB      173             0.0000000000
     20020       173  POPC      C313          -12.5979267790       32.7675359080       -2.7342880731  MEMB      173             0.0000000000
     20021       173  POPC      H13X          -12.9069793094       33.8360091393       -2.7934662210  MEMB      173             0.0000000000
     20022       173  POPC      H13Y          -11.5493061443       32.6761524910       -3.0929715960  MEMB      173             0.0000000000
     20023       173  POPC      C314          -12.7486834417       32.2335144046       -1.3450741219  MEMB      173             0.0000000000
     20024       173  POPC      H14X          -12.8548586599       31.1275077156       -1.5151434833  MEMB      173             0.0000000000
     20025       173  POPC      H14Y          -13.7372898555       32.4985078511       -0.9506901651  MEMB      173             0.0000000000
     20026       173  POPC      C315          -11.5641543887       32.2222695946       -0.3733296046  MEMB      173             0.0000000000
     20027       173  POPC      H15X          -10.8084790351       31.5624331923       -0.8434108463  MEMB      173             0.0000000000
     20028       173  POPC      H15Y          -12.1532673302       31.7499552865        0.4439052293  MEMB      173             0.0000000000
     20029       173  POPC      C316          -10.7856599359       33.2590331671        0.4499426327  MEMB      173             0.0000000000
     20030       173  POPC      H16X          -11.3789974988       34.1290555223        0.7620202185  MEMB      173             0.0000000000
     20031       173  POPC      H16Y           -9.8563982520       33.5754040235       -0.0619491352  MEMB      173             0.0000000000
     20032       173  POPC      H16Z          -10.5059063836       32.7610094096        1.4062900311  MEMB      173             0.0000000000
     20033       174  CHL1      C3            -31.5939360727       18.5876566257      -17.5083999869  MEMB      174             0.0000000000
     20034       174  CHL1      H3            -30.6316710676       18.4788545868      -16.9514424954  MEMB      174             0.0000000000
     20035       174  CHL1      O3            -31.3162979634       18.4909473028      -18.8940980953  MEMB      174             0.0000000000
     20036       174  CHL1      H3'           -30.9521421364       17.6108978736      -19.0422066127  MEMB      174             0.0000000000
     20037       174  CHL1      C4            -32.5769945705       17.4850285936      -17.1028152258  MEMB      174             0.0000000000
     20038       174  CHL1      H4A           -33.5427041491       17.6367633132      -17.6332954114  MEMB      174             0.0000000000
     20039       174  CHL1      H4B           -32.1793784371       16.5017451938      -17.4399104717  MEMB      174             0.0000000000
     20040       174  CHL1      C5            -32.7733932456       17.5424481724      -15.6101845475  MEMB      174             0.0000000000
     20041       174  CHL1      C6            -32.4443393050       16.4738617036      -14.8818938216  MEMB      174             0.0000000000
     20042       174  CHL1      H6            -32.0869996173       15.5649340069      -15.3811431831  MEMB      174             0.0000000000
     20043       174  CHL1      C7            -32.5494197278       16.4150864139      -13.4017564830  MEMB      174             0.0000000000
     20044       174  CHL1      H7A           -33.0877363277       15.4973212721      -13.0833846541  MEMB      174             0.0000000000
     20045       174  CHL1      H7B           -31.5528814351       16.3432866680      -12.9563406314  MEMB      174             0.0000000000
     20046       174  CHL1      C8            -33.2554389004       17.6461368206      -12.8089966633  MEMB      174             0.0000000000
     20047       174  CHL1      H8            -34.3310269753       17.4395893369      -12.9237711836  MEMB      174             0.0000000000
     20048       174  CHL1      C14           -32.8654307802       17.8328909959      -11.3708530044  MEMB      174             0.0000000000
     20049       174  CHL1      H14           -31.9152286588       18.4332943494      -11.3614473304  MEMB      174             0.0000000000
     20050       174  CHL1      C15           -32.4477065577       16.6013991017      -10.5477155302  MEMB      174             0.0000000000
     20051       174  CHL1      H15A          -32.9880942262       15.6836670860      -10.8290350296  MEMB      174             0.0000000000
     20052       174  CHL1      H15B          -31.3588720289       16.4000711356      -10.6577649547  MEMB      174             0.0000000000
     20053       174  CHL1      C16           -32.7951441539       16.9912610167       -9.1251927463  MEMB      174             0.0000000000
     20054       174  CHL1      H16A          -33.5248397273       16.2330493651       -8.7692862634  MEMB      174             0.0000000000
     20055       174  CHL1      H16B          -31.8986727592       16.9767602470       -8.4685874088  MEMB      174             0.0000000000
     20056       174  CHL1      C17           -33.4234708924       18.4233137942       -9.1746683942  MEMB      174             0.0000000000
     20057       174  CHL1      H17           -32.5816165001       19.1268052589       -8.9846955807  MEMB      174             0.0000000000
     20058       174  CHL1      C13           -33.8720544045       18.6885000548      -10.6207682472  MEMB      174             0.0000000000
     20059       174  CHL1      C18           -35.3415770140       18.2083673119      -10.7939361400  MEMB      174             0.0000000000
     20060       174  CHL1      H18A          -35.7013742570       18.3826683013      -11.8231790438  MEMB      174             0.0000000000
     20061       174  CHL1      H18B          -35.4341588797       17.1316471341      -10.5545382838  MEMB      174             0.0000000000
     20062       174  CHL1      H18C          -36.0448015425       18.7886298375      -10.1669547484  MEMB      174             0.0000000000
     20063       174  CHL1      C12           -33.7031925716       20.1178659652      -11.1979377981  MEMB      174             0.0000000000
     20064       174  CHL1      H12A          -34.4866460456       20.7884441581      -10.7928815003  MEMB      174             0.0000000000
     20065       174  CHL1      H12B          -32.7137780814       20.5219495892      -10.8973991928  MEMB      174             0.0000000000
     20066       174  CHL1      C11           -33.7964620619       20.1335975156      -12.7523508528  MEMB      174             0.0000000000
     20067       174  CHL1      H11A          -34.8802964998       20.0462505877      -12.9737585045  MEMB      174             0.0000000000
     20068       174  CHL1      H11B          -33.4657724836       21.1219871604      -13.1331363979  MEMB      174             0.0000000000
     20069       174  CHL1      C9            -33.0164346146       18.9863949421      -13.4954235358  MEMB      174             0.0000000000
     20070       174  CHL1      H9            -31.9339443698       19.2179496369      -13.3496486599  MEMB      174             0.0000000000
     20071       174  CHL1      C10           -33.2314113150       18.9028745498      -15.0297627549  MEMB      174             0.0000000000
     20072       174  CHL1      C19           -34.7491046219       18.9957805109      -15.3349920777  MEMB      174             0.0000000000
     20073       174  CHL1      H19A          -35.1437736344       19.9874812412      -15.0460942267  MEMB      174             0.0000000000
     20074       174  CHL1      H19B          -34.9760880866       18.8554468788      -16.4092637626  MEMB      174             0.0000000000
     20075       174  CHL1      H19C          -35.3040741668       18.2331962430      -14.7521893487  MEMB      174             0.0000000000
     20076       174  CHL1      C1            -32.4571095334       20.0880689900      -15.6846181222  MEMB      174             0.0000000000
     20077       174  CHL1      H1A           -33.0000071894       21.0338173781      -15.4701539249  MEMB      174             0.0000000000
     20078       174  CHL1      H1B           -31.4565591225       20.1632617281      -15.2009893665  MEMB      174             0.0000000000
     20079       174  CHL1      C2            -32.2175803239       19.9532082913      -17.1973325391  MEMB      174             0.0000000000
     20080       174  CHL1      H2A           -31.5462278454       20.7669083122      -17.5433300568  MEMB      174             0.0000000000
     20081       174  CHL1      H2B           -33.1803919482       20.0401190538      -17.7461826762  MEMB      174             0.0000000000
     20082       174  CHL1      C20           -34.4824116352       18.6234511098       -8.1012090386  MEMB      174             0.0000000000
     20083       174  CHL1      H20           -35.4509419545       18.1581236044       -8.3845520516  MEMB      174             0.0000000000
     20084       174  CHL1      C21           -34.6838088925       20.1421903201       -7.8779631334  MEMB      174             0.0000000000
     20085       174  CHL1      H21A          -35.3984303350       20.3276146041       -7.0515992159  MEMB      174             0.0000000000
     20086       174  CHL1      H21B          -35.0886486229       20.6271886309       -8.7862986544  MEMB      174             0.0000000000
     20087       174  CHL1      H21C          -33.7218557856       20.6313790219       -7.6154224570  MEMB      174             0.0000000000
     20088       174  CHL1      C22           -34.1402183514       17.9130847986       -6.7916678728  MEMB      174             0.0000000000
     20089       174  CHL1      H22A          -33.7859421241       16.8663543716       -6.8744320550  MEMB      174             0.0000000000
     20090       174  CHL1      H22B          -33.2853178012       18.4784870187       -6.3667914227  MEMB      174             0.0000000000
     20091       174  CHL1      C23           -35.3502251778       17.8715371531       -5.8551686145  MEMB      174             0.0000000000
     20092       174  CHL1      H23A          -36.1649273802       18.5319648767       -6.2066505425  MEMB      174             0.0000000000
     20093       174  CHL1      H23B          -35.7588306701       16.8296786357       -5.8301914166  MEMB      174             0.0000000000
     20094       174  CHL1      C24           -34.8016237254       18.2815382077       -4.5104316219  MEMB      174             0.0000000000
     20095       174  CHL1      H24A          -34.3677089371       17.3466233234       -4.1109627705  MEMB      174             0.0000000000
     20096       174  CHL1      H24B          -33.9595571573       19.0012793448       -4.6182780164  MEMB      174             0.0000000000
     20097       174  CHL1      C25           -35.6645041016       18.8781972631       -3.4141901470  MEMB      174             0.0000000000
     20098       174  CHL1      H25           -36.7345991613       18.5749657829       -3.4835904155  MEMB      174             0.0000000000
     20099       174  CHL1      C26           -34.9849846783       18.2602826228       -2.1859192513  MEMB      174             0.0000000000
     20100       174  CHL1      H26A          -33.8879499128       18.4365741741       -2.2595034146  MEMB      174             0.0000000000
     20101       174  CHL1      H26B          -35.2826587482       18.7258854755       -1.2593466050  MEMB      174             0.0000000000
     20102       174  CHL1      H26C          -35.1744414735       17.1615581027       -2.1487924100  MEMB      174             0.0000000000
     20103       174  CHL1      C27           -35.5512208205       20.4165740430       -3.4181830624  MEMB      174             0.0000000000
     20104       174  CHL1      H27A          -35.9960285712       20.8397448999       -2.5069389024  MEMB      174             0.0000000000
     20105       174  CHL1      H27B          -34.4865317735       20.7339416900       -3.4318947711  MEMB      174             0.0000000000
     20106       174  CHL1      H27C          -36.0688714622       20.8603940936       -4.2937522689  MEMB      174             0.0000000000
     20107       175  SAPC      N             -30.5717929791      -21.2752348410      -21.9082245850  MEMB      175             0.0000000000
     20108       175  SAPC      C12           -29.7567773716      -21.4247975633      -20.6263742605  MEMB      175             0.0000000000
     20109       175  SAPC      H12A          -28.9917959691      -20.6564655111      -20.6060833978  MEMB      175             0.0000000000
     20110       175  SAPC      H12B          -29.3016947907      -22.4091750119      -20.6126366937  MEMB      175             0.0000000000
     20111       175  SAPC      C13           -29.6795521098      -21.4018363660      -23.1074892660  MEMB      175             0.0000000000
     20112       175  SAPC      H13A          -29.1981277386      -22.3788348346      -23.1270734558  MEMB      175             0.0000000000
     20113       175  SAPC      H13B          -30.2632595462      -21.2937728831      -24.0142178871  MEMB      175             0.0000000000
     20114       175  SAPC      H13C          -28.9225071888      -20.6206948954      -23.0925498766  MEMB      175             0.0000000000
     20115       175  SAPC      C14           -31.6078520362      -22.3414275893      -21.9980956940  MEMB      175             0.0000000000
     20116       175  SAPC      H14A          -32.3798523644      -22.1313532890      -22.7221014754  MEMB      175             0.0000000000
     20117       175  SAPC      H14B          -31.1462563194      -23.2884481788      -22.2453443495  MEMB      175             0.0000000000
     20118       175  SAPC      H14C          -32.0652848685      -22.4865389607      -21.0128934164  MEMB      175             0.0000000000
     20119       175  SAPC      C15           -31.2446490214      -19.9364458424      -21.9163156550  MEMB      175             0.0000000000
     20120       175  SAPC      H15A          -30.4988674508      -19.1501043390      -21.8722594583  MEMB      175             0.0000000000
     20121       175  SAPC      H15B          -31.8529427064      -19.8086222344      -22.7946806842  MEMB      175             0.0000000000
     20122       175  SAPC      H15C          -31.8787392032      -19.8382096277      -21.0368079260  MEMB      175             0.0000000000
     20123       175  SAPC      C11           -30.5226582863      -21.3687382142      -19.2912681906  MEMB      175             0.0000000000
     20124       175  SAPC      H11A          -31.1142004250      -20.4251988186      -19.2504063804  MEMB      175             0.0000000000
     20125       175  SAPC      H11B          -29.8074530837      -21.3538204506      -18.4366333040  MEMB      175             0.0000000000
     20126       175  SAPC      P             -32.4796667892      -22.6752271720      -18.1334824005  MEMB      175             0.0000000000
     20127       175  SAPC      O13           -33.5667293385      -23.5217672262      -18.6763399903  MEMB      175             0.0000000000
     20128       175  SAPC      O14           -31.8941152815      -22.9618866103      -16.8132196912  MEMB      175             0.0000000000
     20129       175  SAPC      O12           -31.3241032509      -22.5373574734      -19.2022186483  MEMB      175             0.0000000000
     20130       175  SAPC      O11           -33.0107232249      -21.1723718592      -18.1397750885  MEMB      175             0.0000000000
     20131       175  SAPC      C1            -33.8136122702      -20.7431339465      -19.2530202340  MEMB      175             0.0000000000
     20132       175  SAPC      HA            -33.2899557514      -20.9132779896      -20.2152109442  MEMB      175             0.0000000000
     20133       175  SAPC      HB            -34.7353910053      -21.3674476954      -19.2779535988  MEMB      175             0.0000000000
     20134       175  SAPC      C2            -34.2383456321      -19.2270106168      -19.2006608655  MEMB      175             0.0000000000
     20135       175  SAPC      HS            -33.6878690219      -18.6715941151      -19.9915114230  MEMB      175             0.0000000000
     20136       175  SAPC      O21           -33.9892498444      -18.6603342378      -17.9051250872  MEMB      175             0.0000000000
     20137       175  SAPC      C21           -32.7606607065      -18.2294150247      -17.6900096570  MEMB      175             0.0000000000
     20138       175  SAPC      O22           -31.9276999375      -17.9851717094      -18.5500519981  MEMB      175             0.0000000000
     20139       175  SAPC      C22           -32.6083752149      -17.9318674960      -16.1927659126  MEMB      175             0.0000000000
     20140       175  SAPC      H2R           -32.9181030976      -16.8749656658      -16.0473961130  MEMB      175             0.0000000000
     20141       175  SAPC      H2S           -33.3162114883      -18.5682642572      -15.6389042172  MEMB      175             0.0000000000
     20142       175  SAPC      C3            -35.7556609864      -19.0584325691      -19.4813228946  MEMB      175             0.0000000000
     20143       175  SAPC      HX            -35.9361848091      -19.1738115044      -20.5718828794  MEMB      175             0.0000000000
     20144       175  SAPC      HY            -36.0535062018      -18.0153946496      -19.2074337990  MEMB      175             0.0000000000
     20145       175  SAPC      O31           -36.4940241808      -20.0655464434      -18.7572620180  MEMB      175             0.0000000000
     20146       175  SAPC      C31           -36.7536976048      -19.6878808857      -17.5002526967  MEMB      175             0.0000000000
     20147       175  SAPC      O32           -37.5311995409      -18.7961775337      -17.2146753793  MEMB      175             0.0000000000
     20148       175  SAPC      C32           -35.9057583412      -20.4714402175      -16.5057144518  MEMB      175             0.0000000000
     20149       175  SAPC      H2X           -34.8628276913      -20.4989318924      -16.8602249037  MEMB      175             0.0000000000
     20150       175  SAPC      H2Y           -36.2691213482      -21.5071936912      -16.4837938923  MEMB      175             0.0000000000
     20151       175  SAPC      C23           -31.1849563085      -18.1462924806      -15.6199024748  MEMB      175             0.0000000000
     20152       175  SAPC      H3R           -30.4768347807      -17.5608558538      -16.2538108831  MEMB      175             0.0000000000
     20153       175  SAPC      H3S           -30.8863407384      -19.2147201930      -15.6763006158  MEMB      175             0.0000000000
     20154       175  SAPC      C24           -31.0455796499      -17.6014719887      -14.1748030258  MEMB      175             0.0000000000
     20155       175  SAPC      H4R           -31.5954410555      -16.6399062812      -14.1866925916  MEMB      175             0.0000000000
     20156       175  SAPC      H4S           -29.9703655277      -17.3517548782      -14.0179152506  MEMB      175             0.0000000000
     20157       175  SAPC      C25           -31.5343025364      -18.4043786407      -12.9933399107  MEMB      175             0.0000000000
     20158       175  SAPC      H5R           -30.8543244197      -19.2057786577      -12.6553098023  MEMB      175             0.0000000000
     20159       175  SAPC      C26           -32.7059018295      -18.2441197700      -12.3414791361  MEMB      175             0.0000000000
     20160       175  SAPC      H6R           -32.9194537110      -18.9279976478      -11.5043874908  MEMB      175             0.0000000000
     20161       175  SAPC      C27           -33.8208882956      -17.2488854449      -12.6171474175  MEMB      175             0.0000000000
     20162       175  SAPC      H7R           -34.7360234389      -17.6497393212      -12.1234244574  MEMB      175             0.0000000000
     20163       175  SAPC      H7S           -34.0642439828      -17.2950062171      -13.7004713772  MEMB      175             0.0000000000
     20164       175  SAPC      C28           -33.7058941595      -15.7754113101      -12.2742404306  MEMB      175             0.0000000000
     20165       175  SAPC      H8R           -33.8095246789      -15.0921250252      -13.1355320401  MEMB      175             0.0000000000
     20166       175  SAPC      C29           -33.5918629975      -15.2298001526      -11.0477588731  MEMB      175             0.0000000000
     20167       175  SAPC      H9R           -33.5834848176      -14.1416830624      -10.9562813933  MEMB      175             0.0000000000
     20168       175  SAPC      C210          -33.5536669917      -16.0069941478       -9.7649516676  MEMB      175             0.0000000000
     20169       175  SAPC      H10R          -32.9086093967      -16.8968273338       -9.9126845967  MEMB      175             0.0000000000
     20170       175  SAPC      H10S          -34.5593749993      -16.3801530478       -9.6552230781  MEMB      175             0.0000000000
     20171       175  SAPC      C211          -33.2133921571      -15.4738179435       -8.4071859562  MEMB      175             0.0000000000
     20172       175  SAPC      H11R          -32.1514375469      -15.2346177813       -8.2996371664  MEMB      175             0.0000000000
     20173       175  SAPC      C212          -33.9691436510      -15.3029220616       -7.2980292832  MEMB      175             0.0000000000
     20174       175  SAPC      H12R          -33.3278548840      -15.1926819058       -6.4300521023  MEMB      175             0.0000000000
     20175       175  SAPC      C213          -35.4354735393      -15.4891041890       -6.8696611465  MEMB      175             0.0000000000
     20176       175  SAPC      H13R          -36.0229809047      -15.5235750446       -7.7709614283  MEMB      175             0.0000000000
     20177       175  SAPC      H13S          -35.5443855193      -14.4480537731       -6.5176505959  MEMB      175             0.0000000000
     20178       175  SAPC      C214          -36.2854391963      -16.2367553018       -5.7931909139  MEMB      175             0.0000000000
     20179       175  SAPC      H14R          -36.4014555947      -15.4550087644       -5.0332326154  MEMB      175             0.0000000000
     20180       175  SAPC      C215          -36.7496051235      -17.4108658238       -5.1979495441  MEMB      175             0.0000000000
     20181       175  SAPC      H15R          -37.4272539597      -17.1660436881       -4.3726505855  MEMB      175             0.0000000000
     20182       175  SAPC      C216          -36.8273737310      -18.9537932399       -5.1854055250  MEMB      175             0.0000000000
     20183       175  SAPC      H16R          -37.5196770181      -19.2815534141       -5.9665661812  MEMB      175             0.0000000000
     20184       175  SAPC      H16S          -37.4314359718      -19.1411626881       -4.2673456063  MEMB      175             0.0000000000
     20185       175  SAPC      C217          -35.8373412335      -20.1802207390       -5.0454950122  MEMB      175             0.0000000000
     20186       175  SAPC      H17R          -34.7797555071      -19.9883431936       -5.2447041040  MEMB      175             0.0000000000
     20187       175  SAPC      H17S          -36.1707928964      -20.9253597653       -5.8121578255  MEMB      175             0.0000000000
     20188       175  SAPC      C218          -35.9213927067      -20.9471115528       -3.7073335253  MEMB      175             0.0000000000
     20189       175  SAPC      H18R          -35.4943282112      -21.9688747625       -3.8506436227  MEMB      175             0.0000000000
     20190       175  SAPC      H18S          -36.9824757068      -21.0883391860       -3.4241847323  MEMB      175             0.0000000000
     20191       175  SAPC      C219          -35.1531395841      -20.2757272534       -2.5648430262  MEMB      175             0.0000000000
     20192       175  SAPC      H19R          -35.1585552188      -19.1730857798       -2.7099305162  MEMB      175             0.0000000000
     20193       175  SAPC      H19S          -34.0915866388      -20.6001060762       -2.6294225809  MEMB      175             0.0000000000
     20194       175  SAPC      C220          -35.7006872299      -20.6022465277       -1.1727528198  MEMB      175             0.0000000000
     20195       175  SAPC      H20R          -36.7317658346      -20.2103168886       -1.0469012164  MEMB      175             0.0000000000
     20196       175  SAPC      H20S          -35.0532847482      -20.1412798828       -0.3963725361  MEMB      175             0.0000000000
     20197       175  SAPC      H20T          -35.7242081926      -21.6969799802       -1.0056834743  MEMB      175             0.0000000000
     20198       175  SAPC      C33           -35.8746865956      -19.7778979157      -15.1288084278  MEMB      175             0.0000000000
     20199       175  SAPC      H3X           -36.8988317073      -19.6905754350      -14.7044804268  MEMB      175             0.0000000000
     20200       175  SAPC      H3Y           -35.4678444687      -18.7575476868      -15.3250749657  MEMB      175             0.0000000000
     20201       175  SAPC      C34           -34.9088150324      -20.3488823354      -14.0853765913  MEMB      175             0.0000000000
     20202       175  SAPC      H4X           -35.1408831271      -19.9249667425      -13.0827982272  MEMB      175             0.0000000000
     20203       175  SAPC      H4Y           -33.8877023749      -19.9951776315      -14.3524304114  MEMB      175             0.0000000000
     20204       175  SAPC      C35           -34.8096452460      -21.8672513593      -13.9910615260  MEMB      175             0.0000000000
     20205       175  SAPC      H5X           -35.0635698192      -22.3633747583      -14.9536298948  MEMB      175             0.0000000000
     20206       175  SAPC      H5Y           -35.5297974935      -22.2334826190      -13.2298071831  MEMB      175             0.0000000000
     20207       175  SAPC      C36           -33.3629519108      -22.2575408273      -13.6706890886  MEMB      175             0.0000000000
     20208       175  SAPC      H6X           -32.8827463994      -21.4794485013      -13.0416815181  MEMB      175             0.0000000000
     20209       175  SAPC      H6Y           -32.7905435155      -22.2690665153      -14.6284011470  MEMB      175             0.0000000000
     20210       175  SAPC      C37           -33.2358105978      -23.6214479568      -12.9909545072  MEMB      175             0.0000000000
     20211       175  SAPC      H7X           -32.1535479044      -23.8566819795      -12.8796691680  MEMB      175             0.0000000000
     20212       175  SAPC      H7Y           -33.6612653703      -24.3627021829      -13.6946001867  MEMB      175             0.0000000000
     20213       175  SAPC      C38           -33.9306996903      -23.7162404510      -11.6195238381  MEMB      175             0.0000000000
     20214       175  SAPC      H8X           -33.6645987431      -24.6873952028      -11.1458538926  MEMB      175             0.0000000000
     20215       175  SAPC      H8Y           -35.0337985786      -23.7070097367      -11.7537939352  MEMB      175             0.0000000000
     20216       175  SAPC      C39           -33.4973191089      -22.5899964164      -10.6755190641  MEMB      175             0.0000000000
     20217       175  SAPC      H9X           -33.6272898337      -21.5930294060      -11.1483553620  MEMB      175             0.0000000000
     20218       175  SAPC      H9Y           -32.4103193626      -22.7409041345      -10.4841405034  MEMB      175             0.0000000000
     20219       175  SAPC      C310          -34.2455308793      -22.5431012750       -9.3422521415  MEMB      175             0.0000000000
     20220       175  SAPC      H10X          -34.5814850024      -23.5715838539       -9.0772111422  MEMB      175             0.0000000000
     20221       175  SAPC      H10Y          -35.1571662007      -21.9132366565       -9.4518327034  MEMB      175             0.0000000000
     20222       175  SAPC      C311          -33.3529869956      -22.0195168541       -8.2048795744  MEMB      175             0.0000000000
     20223       175  SAPC      H11X          -32.6047004141      -22.8143027888       -7.9815157057  MEMB      175             0.0000000000
     20224       175  SAPC      H11Y          -33.9766350819      -21.8782071548       -7.2936608075  MEMB      175             0.0000000000
     20225       175  SAPC      C312          -32.5681469151      -20.7260765325       -8.5101723522  MEMB      175             0.0000000000
     20226       175  SAPC      H12X          -33.2785179831      -19.9041217786       -8.7271272876  MEMB      175             0.0000000000
     20227       175  SAPC      H12Y          -31.9509060289      -20.8498206889       -9.4254236204  MEMB      175             0.0000000000
     20228       175  SAPC      C313          -31.6213229378      -20.3601006617       -7.3476225515  MEMB      175             0.0000000000
     20229       175  SAPC      H13X          -30.9167831062      -21.2083331583       -7.2033005458  MEMB      175             0.0000000000
     20230       175  SAPC      H13Y          -32.1936041064      -20.2785150044       -6.3996007733  MEMB      175             0.0000000000
     20231       175  SAPC      C314          -30.7880692512      -19.0811462150       -7.5495177263  MEMB      175             0.0000000000
     20232       175  SAPC      H14X          -31.4025249833      -18.1867967105       -7.7599465131  MEMB      175             0.0000000000
     20233       175  SAPC      H14Y          -30.1661573865      -19.2387383751       -8.4584676488  MEMB      175             0.0000000000
     20234       175  SAPC      C315          -29.8725648180      -18.7838801633       -6.3389938999  MEMB      175             0.0000000000
     20235       175  SAPC      H15X          -29.0489752675      -18.1345563075       -6.6959704433  MEMB      175             0.0000000000
     20236       175  SAPC      H15Y          -29.4748937646      -19.7550827149       -5.9814489960  MEMB      175             0.0000000000
     20237       175  SAPC      C316          -30.5491033526      -18.0625761016       -5.1670352975  MEMB      175             0.0000000000
     20238       175  SAPC      H16X          -31.4736317449      -18.6498142378       -4.9812642082  MEMB      175             0.0000000000
     20239       175  SAPC      H16Y          -30.7744849543      -17.0214851766       -5.4911314795  MEMB      175             0.0000000000
     20240       175  SAPC      C317          -29.8792271669      -17.9884838582       -3.7891052909  MEMB      175             0.0000000000
     20241       175  SAPC      H17X          -28.9312636142      -17.4089623986       -3.8129042414  MEMB      175             0.0000000000
     20242       175  SAPC      H17Y          -29.6644220232      -19.0125107239       -3.4506090255  MEMB      175             0.0000000000
     20243       175  SAPC      C318          -30.8282080126      -17.4914769028       -2.6956473034  MEMB      175             0.0000000000
     20244       175  SAPC      H18X          -31.0951216492      -16.4244442458       -2.8198495048  MEMB      175             0.0000000000
     20245       175  SAPC      H18Y          -30.3708807559      -17.6448919256       -1.6943871063  MEMB      175             0.0000000000
     20246       175  SAPC      H18Z          -31.7579118898      -18.1035670284       -2.7353981676  MEMB      175             0.0000000000
     20247       176  SAPE      N             -22.2311484076      -32.4877152248      -22.4730004543  MEMB      176             0.0000000000
     20248       176  SAPE      HN1           -22.8815286273      -32.0261955056      -23.1567097290  MEMB      176             0.0000000000
     20249       176  SAPE      HN2           -21.9162592906      -33.4186004506      -22.8058604628  MEMB      176             0.0000000000
     20250       176  SAPE      HN3           -22.7434461821      -32.6432861574      -21.5760583936  MEMB      176             0.0000000000
     20251       176  SAPE      C12           -21.0830406917      -31.5554740218      -22.2213652537  MEMB      176             0.0000000000
     20252       176  SAPE      H12A          -21.4579936395      -30.7374717126      -21.5688204451  MEMB      176             0.0000000000
     20253       176  SAPE      H12B          -20.7715612968      -31.1221184153      -23.1959929357  MEMB      176             0.0000000000
     20254       176  SAPE      C11           -19.9163201910      -32.3129777461      -21.5676973396  MEMB      176             0.0000000000
     20255       176  SAPE      H11A          -19.0783100255      -31.6033988947      -21.3880116851  MEMB      176             0.0000000000
     20256       176  SAPE      H11B          -19.5241733882      -33.0612461737      -22.2942025741  MEMB      176             0.0000000000
     20257       176  SAPE      P             -20.7519355983      -32.2196737458      -19.0536416184  MEMB      176             0.0000000000
     20258       176  SAPE      O13           -22.2095382500      -31.9967101827      -19.2118809930  MEMB      176             0.0000000000
     20259       176  SAPE      O14           -20.3202706741      -33.0045493745      -17.8798249276  MEMB      176             0.0000000000
     20260       176  SAPE      O12           -20.3025337078      -33.0043658521      -20.3780677786  MEMB      176             0.0000000000
     20261       176  SAPE      O11           -20.0367727558      -30.8128767151      -19.1669865525  MEMB      176             0.0000000000
     20262       176  SAPE      C1            -18.6151751618      -30.6302517429      -19.0717314493  MEMB      176             0.0000000000
     20263       176  SAPE      HA            -18.0463007489      -31.5690343405      -19.2661123446  MEMB      176             0.0000000000
     20264       176  SAPE      HB            -18.3161995587      -29.9182560134      -19.8740023861  MEMB      176             0.0000000000
     20265       176  SAPE      C2            -18.1042907961      -29.9784332956      -17.7368792007  MEMB      176             0.0000000000
     20266       176  SAPE      HS            -17.0109870769      -29.7856014954      -17.8642725046  MEMB      176             0.0000000000
     20267       176  SAPE      O21           -18.3148929699      -30.7975147207      -16.5652039687  MEMB      176             0.0000000000
     20268       176  SAPE      C21           -17.5362225119      -31.8793178730      -16.5188027813  MEMB      176             0.0000000000
     20269       176  SAPE      O22           -16.7309687148      -32.2107340248      -17.3661015739  MEMB      176             0.0000000000
     20270       176  SAPE      C22           -17.6920998743      -32.6238385598      -15.1970644105  MEMB      176             0.0000000000
     20271       176  SAPE      H2R           -18.7456703173      -32.9248131988      -15.1149480027  MEMB      176             0.0000000000
     20272       176  SAPE      H2S           -17.1011835276      -33.5610263107      -15.3140164452  MEMB      176             0.0000000000
     20273       176  SAPE      C3            -18.7671595292      -28.5850444437      -17.4899286155  MEMB      176             0.0000000000
     20274       176  SAPE      HX            -18.4800144306      -27.9346917285      -18.3419884312  MEMB      176             0.0000000000
     20275       176  SAPE      HY            -18.3132968401      -28.1446426824      -16.5697655913  MEMB      176             0.0000000000
     20276       176  SAPE      O31           -20.2075356822      -28.6612298000      -17.4537043225  MEMB      176             0.0000000000
     20277       176  SAPE      C31           -20.7900120007      -28.4406680810      -16.2921074199  MEMB      176             0.0000000000
     20278       176  SAPE      O32           -20.2984155082      -27.8476992321      -15.3483045843  MEMB      176             0.0000000000
     20279       176  SAPE      C32           -22.2245441950      -28.9860062920      -16.3366290758  MEMB      176             0.0000000000
     20280       176  SAPE      H2X           -22.5214397083      -29.0353063015      -17.4050335742  MEMB      176             0.0000000000
     20281       176  SAPE      H2Y           -22.8774695144      -28.2685800078      -15.8041743147  MEMB      176             0.0000000000
     20282       176  SAPE      C23           -17.1473348141      -31.8979252540      -13.9304627789  MEMB      176             0.0000000000
     20283       176  SAPE      H3R           -16.0510803071      -32.0229817467      -13.9351814269  MEMB      176             0.0000000000
     20284       176  SAPE      H3S           -17.5192235963      -32.4160217248      -13.0229401932  MEMB      176             0.0000000000
     20285       176  SAPE      C24           -17.3283586435      -30.3764082078      -13.7776602177  MEMB      176             0.0000000000
     20286       176  SAPE      H4R           -16.9514227336      -29.8716847808      -14.6925523422  MEMB      176             0.0000000000
     20287       176  SAPE      H4S           -16.6420718164      -30.0723743562      -12.9561901455  MEMB      176             0.0000000000
     20288       176  SAPE      C25           -18.7288948775      -29.9125845665      -13.4950885936  MEMB      176             0.0000000000
     20289       176  SAPE      H5R           -19.4099742954      -30.0004454631      -14.3559772201  MEMB      176             0.0000000000
     20290       176  SAPE      C26           -19.2264555156      -29.4438815979      -12.3373450355  MEMB      176             0.0000000000
     20291       176  SAPE      H6R           -20.2668475498      -29.0810309145      -12.3295506732  MEMB      176             0.0000000000
     20292       176  SAPE      C27           -18.5040762515      -29.2667757576      -11.0268442531  MEMB      176             0.0000000000
     20293       176  SAPE      H7R           -17.4093264884      -29.3876718314      -11.1516131450  MEMB      176             0.0000000000
     20294       176  SAPE      H7S           -18.7974751902      -30.0862205097      -10.3379503628  MEMB      176             0.0000000000
     20295       176  SAPE      C28           -18.7827452026      -27.9353057223      -10.3751724202  MEMB      176             0.0000000000
     20296       176  SAPE      H8R           -17.9292163125      -27.2499586313      -10.4410551074  MEMB      176             0.0000000000
     20297       176  SAPE      C29           -19.9306823487      -27.4720817344       -9.8305968743  MEMB      176             0.0000000000
     20298       176  SAPE      H9R           -19.9060039661      -26.4636328761       -9.3873294165  MEMB      176             0.0000000000
     20299       176  SAPE      C210          -21.2743713951      -28.1643733875       -9.7190906715  MEMB      176             0.0000000000
     20300       176  SAPE      H10R          -21.8226326300      -28.0453340721      -10.6814104985  MEMB      176             0.0000000000
     20301       176  SAPE      H10S          -21.8791061800      -27.5951628517       -8.9799893864  MEMB      176             0.0000000000
     20302       176  SAPE      C211          -21.2721095093      -29.6260239358       -9.3334580619  MEMB      176             0.0000000000
     20303       176  SAPE      H11R          -21.1434266522      -30.3238473317      -10.1779565330  MEMB      176             0.0000000000
     20304       176  SAPE      C212          -21.3605253179      -30.1246832758       -8.0844376431  MEMB      176             0.0000000000
     20305       176  SAPE      H12R          -21.2860159537      -31.2156735621       -7.9453075609  MEMB      176             0.0000000000
     20306       176  SAPE      C213          -21.4821415767      -29.3250711855       -6.8083264192  MEMB      176             0.0000000000
     20307       176  SAPE      H13R          -22.0393284273      -29.9242908803       -6.0572478241  MEMB      176             0.0000000000
     20308       176  SAPE      H13S          -22.1023145141      -28.4166749550       -6.9782401692  MEMB      176             0.0000000000
     20309       176  SAPE      C214          -20.1241351648      -28.9066972686       -6.2944918782  MEMB      176             0.0000000000
     20310       176  SAPE      H14R          -19.5016781678      -28.3770493413       -7.0351102070  MEMB      176             0.0000000000
     20311       176  SAPE      C215          -19.6310347172      -29.0599880018       -5.0504014531  MEMB      176             0.0000000000
     20312       176  SAPE      H15R          -18.6251704657      -28.6631557988       -4.8402327809  MEMB      176             0.0000000000
     20313       176  SAPE      C216          -20.2986631113      -29.6800313744       -3.8417062392  MEMB      176             0.0000000000
     20314       176  SAPE      H16R          -19.7665912890      -30.6001955234       -3.5177016696  MEMB      176             0.0000000000
     20315       176  SAPE      H16S          -21.3608274311      -29.9519697202       -4.0254484755  MEMB      176             0.0000000000
     20316       176  SAPE      C217          -20.2179587499      -28.6208188186       -2.7299806736  MEMB      176             0.0000000000
     20317       176  SAPE      H17R          -20.7119303501      -27.6882274890       -3.0949112221  MEMB      176             0.0000000000
     20318       176  SAPE      H17S          -19.1471548983      -28.3807006430       -2.5307173564  MEMB      176             0.0000000000
     20319       176  SAPE      C218          -20.8626291109      -28.9533965879       -1.3745171001  MEMB      176             0.0000000000
     20320       176  SAPE      H18R          -20.3707065528      -29.8298371438       -0.9033713354  MEMB      176             0.0000000000
     20321       176  SAPE      H18S          -21.9420163463      -29.1854548405       -1.5092869547  MEMB      176             0.0000000000
     20322       176  SAPE      C219          -20.6998517893      -27.7086921047       -0.4911375222  MEMB      176             0.0000000000
     20323       176  SAPE      H19R          -21.2018727377      -26.8912877085       -1.0513640307  MEMB      176             0.0000000000
     20324       176  SAPE      H19S          -19.6153079255      -27.4667948437       -0.4186168893  MEMB      176             0.0000000000
     20325       176  SAPE      C220          -21.3102721023      -27.7210349066        0.9030570983  MEMB      176             0.0000000000
     20326       176  SAPE      H20R          -21.0524388007      -28.6444662617        1.4609885198  MEMB      176             0.0000000000
     20327       176  SAPE      H20S          -22.4149163142      -27.6354920750        0.8196749699  MEMB      176             0.0000000000
     20328       176  SAPE      H20T          -20.9498368062      -26.8419091683        1.4856516443  MEMB      176             0.0000000000
     20329       176  SAPE      C33           -22.3551985736      -30.4003817320      -15.7118304961  MEMB      176             0.0000000000
     20330       176  SAPE      H3X           -21.5158213805      -31.0278060522      -16.0897796322  MEMB      176             0.0000000000
     20331       176  SAPE      H3Y           -23.2923555324      -30.8805321888      -16.0708570482  MEMB      176             0.0000000000
     20332       176  SAPE      C34           -22.4003089206      -30.3905740754      -14.1726783617  MEMB      176             0.0000000000
     20333       176  SAPE      H4X           -23.3537582176      -29.9338695529      -13.8302887960  MEMB      176             0.0000000000
     20334       176  SAPE      H4Y           -21.5855279031      -29.7370416237      -13.8024408955  MEMB      176             0.0000000000
     20335       176  SAPE      C35           -22.2540204942      -31.7738650432      -13.5087472326  MEMB      176             0.0000000000
     20336       176  SAPE      H5X           -23.2137773671      -32.3088118250      -13.6198386042  MEMB      176             0.0000000000
     20337       176  SAPE      H5Y           -22.0599505206      -31.6379677104      -12.4215204116  MEMB      176             0.0000000000
     20338       176  SAPE      C36           -21.1401535962      -32.6387201561      -14.1104168470  MEMB      176             0.0000000000
     20339       176  SAPE      H6X           -20.2586534248      -31.9835202511      -14.2478073392  MEMB      176             0.0000000000
     20340       176  SAPE      H6Y           -21.4480768784      -32.9870998988      -15.1228019176  MEMB      176             0.0000000000
     20341       176  SAPE      C37           -20.7299360997      -33.8607945209      -13.2723344319  MEMB      176             0.0000000000
     20342       176  SAPE      H7X           -20.1704584292      -34.5617879996      -13.9345880845  MEMB      176             0.0000000000
     20343       176  SAPE      H7Y           -21.6397608785      -34.3955518625      -12.9255851231  MEMB      176             0.0000000000
     20344       176  SAPE      C38           -19.8155330954      -33.5035860966      -12.0884967962  MEMB      176             0.0000000000
     20345       176  SAPE      H8X           -19.5753148622      -32.4177983504      -12.1222131767  MEMB      176             0.0000000000
     20346       176  SAPE      H8Y           -18.8607837211      -34.0678173097      -12.1714632866  MEMB      176             0.0000000000
     20347       176  SAPE      C39           -20.4814388758      -33.8072337431      -10.7516786615  MEMB      176             0.0000000000
     20348       176  SAPE      H9X           -20.6538777849      -34.9042937136      -10.6693084258  MEMB      176             0.0000000000
     20349       176  SAPE      H9Y           -21.4695777897      -33.2952924597      -10.7873591396  MEMB      176             0.0000000000
     20350       176  SAPE      C310          -19.7489735206      -33.2910828195       -9.5051577444  MEMB      176             0.0000000000
     20351       176  SAPE      H10X          -20.3934949479      -33.4534569979       -8.6110723875  MEMB      176             0.0000000000
     20352       176  SAPE      H10Y          -19.5963461959      -32.1941473969       -9.6128767739  MEMB      176             0.0000000000
     20353       176  SAPE      C311          -18.3981029926      -33.9620168255       -9.2492948054  MEMB      176             0.0000000000
     20354       176  SAPE      H11X          -17.8056588502      -33.9077636456      -10.1902247223  MEMB      176             0.0000000000
     20355       176  SAPE      H11Y          -18.5413928092      -35.0372197418       -8.9917392592  MEMB      176             0.0000000000
     20356       176  SAPE      C312          -17.5877204785      -33.2651514284       -8.1486524430  MEMB      176             0.0000000000
     20357       176  SAPE      H12X          -17.4387777163      -32.1976616848       -8.4314662819  MEMB      176             0.0000000000
     20358       176  SAPE      H12Y          -16.5840276769      -33.7439332729       -8.0995655276  MEMB      176             0.0000000000
     20359       176  SAPE      C313          -18.2155110103      -33.3296341384       -6.7505384849  MEMB      176             0.0000000000
     20360       176  SAPE      H13X          -18.4470588543      -34.3897010502       -6.5042842175  MEMB      176             0.0000000000
     20361       176  SAPE      H13Y          -19.1698012269      -32.7576167150       -6.7291337999  MEMB      176             0.0000000000
     20362       176  SAPE      C314          -17.2608441656      -32.7632450872       -5.6908138856  MEMB      176             0.0000000000
     20363       176  SAPE      H14X          -17.0716220389      -31.6889277345       -5.9120500761  MEMB      176             0.0000000000
     20364       176  SAPE      H14Y          -16.2883724617      -33.3023909384       -5.7604412502  MEMB      176             0.0000000000
     20365       176  SAPE      C315          -17.7888838554      -32.9003398737       -4.2575371226  MEMB      176             0.0000000000
     20366       176  SAPE      H15X          -17.9215565346      -33.9819320025       -4.0293054709  MEMB      176             0.0000000000
     20367       176  SAPE      H15Y          -18.7858720416      -32.4160187781       -4.1838587075  MEMB      176             0.0000000000
     20368       176  SAPE      C316          -16.8360094073      -32.2911311621       -3.2150170374  MEMB      176             0.0000000000
     20369       176  SAPE      H16X          -16.8599941641      -31.1804798625       -3.2886271910  MEMB      176             0.0000000000
     20370       176  SAPE      H16Y          -15.8018663765      -32.6204423398       -3.4620618715  MEMB      176             0.0000000000
     20371       176  SAPE      C317          -17.1644687067      -32.7232670274       -1.7751988239  MEMB      176             0.0000000000
     20372       176  SAPE      H17X          -16.4006897090      -32.3170855789       -1.0738574528  MEMB      176             0.0000000000
     20373       176  SAPE      H17Y          -17.0984375499      -33.8348832346       -1.7295118017  MEMB      176             0.0000000000
     20374       176  SAPE      C318          -18.5461290282      -32.2808225859       -1.2890726397  MEMB      176             0.0000000000
     20375       176  SAPE      H18X          -18.5869747076      -31.1714094595       -1.2074075317  MEMB      176             0.0000000000
     20376       176  SAPE      H18Y          -18.7788459499      -32.7189259316       -0.2941288847  MEMB      176             0.0000000000
     20377       176  SAPE      H18Z          -19.3308020229      -32.6061522879       -2.0054375756  MEMB      176             0.0000000000
     20378       177  OSM       N              37.4871494697       10.6030203861      -21.0529025744  MEMB      177             0.0000000000
     20379       177  OSM       C15            36.1314879247       10.3756653817      -20.4531494198  MEMB      177             0.0000000000
     20380       177  OSM       H15A           36.1917573553       10.3810076451      -19.3703151338  MEMB      177             0.0000000000
     20381       177  OSM       H15B           35.6484196667        9.4933370746      -20.8440537245  MEMB      177             0.0000000000
     20382       177  OSM       H15C           35.5044637310       11.2250059454      -20.7331215235  MEMB      177             0.0000000000
     20383       177  OSM       C14            38.2945249728        9.4033689443      -20.7963051880  MEMB      177             0.0000000000
     20384       177  OSM       H14A           39.2711804223        9.4746775179      -21.2535958561  MEMB      177             0.0000000000
     20385       177  OSM       H14B           37.7971625692        8.5348503328      -21.2382311219  MEMB      177             0.0000000000
     20386       177  OSM       H14C           38.3763665659        9.2125774661      -19.7338519971  MEMB      177             0.0000000000
     20387       177  OSM       C13            37.3269905326       10.7656390291      -22.5298150880  MEMB      177             0.0000000000
     20388       177  OSM       H13A           36.6973868519        9.9832041935      -22.9460663944  MEMB      177             0.0000000000
     20389       177  OSM       H13B           38.2757492743       10.7534049958      -23.0368173221  MEMB      177             0.0000000000
     20390       177  OSM       H13C           36.8201216715       11.7193178788      -22.7250992046  MEMB      177             0.0000000000
     20391       177  OSM       C12            38.0795365045       11.8542854922      -20.3976130385  MEMB      177             0.0000000000
     20392       177  OSM       H12A           39.1483002520       11.8844496687      -20.5117368094  MEMB      177             0.0000000000
     20393       177  OSM       H12B           37.8621446617       11.8043077548      -19.3269837455  MEMB      177             0.0000000000
     20394       177  OSM       C11            37.5177631061       13.2129959030      -20.8521567922  MEMB      177             0.0000000000
     20395       177  OSM       H11A           37.8668195674       13.4534371237      -21.8808828573  MEMB      177             0.0000000000
     20396       177  OSM       H11B           37.9123865867       14.0123835463      -20.1817008604  MEMB      177             0.0000000000
     20397       177  OSM       P              35.1779104121       14.3537256481      -20.9102054073  MEMB      177             0.0000000000
     20398       177  OSM       O13            35.7674493083       15.1934475564      -21.9732427394  MEMB      177             0.0000000000
     20399       177  OSM       O14            33.8087738981       13.8294118732      -21.1096462697  MEMB      177             0.0000000000
     20400       177  OSM       O11            35.2960186210       15.0003428679      -19.4860401182  MEMB      177             0.0000000000
     20401       177  OSM       O12            36.1047655362       13.1270937138      -20.8080663145  MEMB      177             0.0000000000
     20402       177  OSM       C1S            35.2438674313       14.1019465705      -18.3672468219  MEMB      177             0.0000000000
     20403       177  OSM       H1S            35.2184310962       13.0143470747      -18.6243491999  MEMB      177             0.0000000000
     20404       177  OSM       H1T            34.3242524354       14.2971150784      -17.7694359999  MEMB      177             0.0000000000
     20405       177  OSM       NF             36.5423892601       13.3570282426      -16.4459067694  MEMB      177             0.0000000000
     20406       177  OSM       HNF            36.4915298352       13.7036258702      -15.5136886487  MEMB      177             0.0000000000
     20407       177  OSM       C2S            36.4675930319       14.3741972535      -17.4902333104  MEMB      177             0.0000000000
     20408       177  OSM       H2S            37.4033708795       14.3122786999      -18.0849703991  MEMB      177             0.0000000000
     20409       177  OSM       C3S            36.2663964217       15.8357901741      -16.9730391165  MEMB      177             0.0000000000
     20410       177  OSM       H3S            35.1844614198       16.0524811170      -16.8222258225  MEMB      177             0.0000000000
     20411       177  OSM       O3             36.8046879654       16.8579845078      -17.8222751844  MEMB      177             0.0000000000
     20412       177  OSM       HO3            37.0747234916       16.4282345550      -18.6368331139  MEMB      177             0.0000000000
     20413       177  OSM       C4S            36.9727498117       15.9076107448      -15.6842861450  MEMB      177             0.0000000000
     20414       177  OSM       H4S            38.0193842350       16.2450243638      -15.7250356243  MEMB      177             0.0000000000
     20415       177  OSM       C5S            36.3749540918       15.6221839058      -14.5166095391  MEMB      177             0.0000000000
     20416       177  OSM       H5S            35.3148313400       15.3150497890      -14.4780332810  MEMB      177             0.0000000000
     20417       177  OSM       C6S            37.1224697885       15.6721897401      -13.2415103858  MEMB      177             0.0000000000
     20418       177  OSM       H6S            36.8557598252       16.5696895449      -12.6478354177  MEMB      177             0.0000000000
     20419       177  OSM       H6T            38.2069185150       15.7318607138      -13.4844853982  MEMB      177             0.0000000000
     20420       177  OSM       C7S            36.9752326243       14.3939467137      -12.4062692545  MEMB      177             0.0000000000
     20421       177  OSM       H7S            36.8590935982       13.4793476312      -13.0300198176  MEMB      177             0.0000000000
     20422       177  OSM       H7T            36.0799594278       14.4909642627      -11.7542241692  MEMB      177             0.0000000000
     20423       177  OSM       C8S            38.2545476975       14.2529948017      -11.5891219817  MEMB      177             0.0000000000
     20424       177  OSM       H8S            38.5618515075       15.2915841531      -11.3409210467  MEMB      177             0.0000000000
     20425       177  OSM       H8T            39.0649095327       13.7953126364      -12.2005987259  MEMB      177             0.0000000000
     20426       177  OSM       C9S            38.1446734728       13.5211682356      -10.2643070695  MEMB      177             0.0000000000
     20427       177  OSM       H9S            39.1445796771       13.6365581463       -9.7807946797  MEMB      177             0.0000000000
     20428       177  OSM       H9T            37.9635706345       12.4369350680      -10.4314358389  MEMB      177             0.0000000000
     20429       177  OSM       C10S           37.0818016390       14.1020673339       -9.3223982502  MEMB      177             0.0000000000
     20430       177  OSM       H10S           36.0873808833       13.7058693386       -9.6226555221  MEMB      177             0.0000000000
     20431       177  OSM       H10T           37.0435883998       15.2101772086       -9.4234801337  MEMB      177             0.0000000000
     20432       177  OSM       C11S           37.3585333361       13.7396801001       -7.8578504324  MEMB      177             0.0000000000
     20433       177  OSM       H11S           36.4067991125       13.7995088014       -7.2825297875  MEMB      177             0.0000000000
     20434       177  OSM       H11T           38.0577559813       14.4953541156       -7.4352268127  MEMB      177             0.0000000000
     20435       177  OSM       C12S           37.9892887771       12.3433131108       -7.7378453966  MEMB      177             0.0000000000
     20436       177  OSM       H12S           39.0133123450       12.3438513655       -8.1675725828  MEMB      177             0.0000000000
     20437       177  OSM       H12T           37.3809819086       11.6276325298       -8.3314479352  MEMB      177             0.0000000000
     20438       177  OSM       C13S           38.1377173430       11.7908010269       -6.3304665896  MEMB      177             0.0000000000
     20439       177  OSM       H13S           38.7277418461       10.8511450755       -6.3867979455  MEMB      177             0.0000000000
     20440       177  OSM       H13T           37.1586759402       11.5148846751       -5.8966255076  MEMB      177             0.0000000000
     20441       177  OSM       C14S           38.7732043286       12.7307752776       -5.3251534680  MEMB      177             0.0000000000
     20442       177  OSM       H14S           38.3761380740       13.7670968803       -5.4060936892  MEMB      177             0.0000000000
     20443       177  OSM       H14T           39.8735370353       12.7504513106       -5.4664705157  MEMB      177             0.0000000000
     20444       177  OSM       C15S           38.3861804923       12.2032987910       -3.9592777640  MEMB      177             0.0000000000
     20445       177  OSM       H15S           38.3158692295       11.0939868320       -3.9847384176  MEMB      177             0.0000000000
     20446       177  OSM       H15T           37.3621079991       12.5665636478       -3.7393032899  MEMB      177             0.0000000000
     20447       177  OSM       C16S           39.3551526005       12.5809917104       -2.8658636541  MEMB      177             0.0000000000
     20448       177  OSM       H16S           39.3771977239       13.6874851747       -2.7449574863  MEMB      177             0.0000000000
     20449       177  OSM       H16T           40.3751934425       12.2204014493       -3.1302261292  MEMB      177             0.0000000000
     20450       177  OSM       C17S           38.8854635535       11.9279544192       -1.5851991613  MEMB      177             0.0000000000
     20451       177  OSM       H17S           39.7140311445       11.9914603515       -0.8530545142  MEMB      177             0.0000000000
     20452       177  OSM       H17T           38.6901254846       10.8439679561       -1.7640360195  MEMB      177             0.0000000000
     20453       177  OSM       C18S           37.6068159098       12.5883368352       -1.0715351935  MEMB      177             0.0000000000
     20454       177  OSM       H18S           36.8059134459       12.6146605850       -1.8347013216  MEMB      177             0.0000000000
     20455       177  OSM       H18T           37.7930986316       13.6246316001       -0.7204927066  MEMB      177             0.0000000000
     20456       177  OSM       H18U           37.1955832429       11.9980775328       -0.2429977625  MEMB      177             0.0000000000
     20457       177  OSM       C1F            36.7078014039       12.0487276830      -16.5903675918  MEMB      177             0.0000000000
     20458       177  OSM       OF             37.2097410903       11.5339319061      -17.5845272465  MEMB      177             0.0000000000
     20459       177  OSM       C2F            36.2453540332       11.2729005163      -15.4092615327  MEMB      177             0.0000000000
     20460       177  OSM       H2F            35.6279572227       11.9757585400      -14.8008456490  MEMB      177             0.0000000000
     20461       177  OSM       H2G            37.1226378310       10.9683057181      -14.7980482222  MEMB      177             0.0000000000
     20462       177  OSM       C3F            35.3558085370       10.0567973624      -15.7454052834  MEMB      177             0.0000000000
     20463       177  OSM       H3F            36.0128366035        9.1706194110      -15.8992468717  MEMB      177             0.0000000000
     20464       177  OSM       H3G            34.7658428656       10.2083623403      -16.6764381436  MEMB      177             0.0000000000
     20465       177  OSM       C4F            34.3760897854        9.7717199967      -14.6000474802  MEMB      177             0.0000000000
     20466       177  OSM       H4F            34.0125787961        8.7250582154      -14.6873846410  MEMB      177             0.0000000000
     20467       177  OSM       H4G            33.4874664810       10.4388959500      -14.6726048265  MEMB      177             0.0000000000
     20468       177  OSM       C5F            35.0198410510        9.9941633728      -13.2281926663  MEMB      177             0.0000000000
     20469       177  OSM       H5F            34.8979998137       11.0557938287      -12.9165073769  MEMB      177             0.0000000000
     20470       177  OSM       H5G            36.1106546745        9.7686875436      -13.2899209329  MEMB      177             0.0000000000
     20471       177  OSM       C6F            34.4518174081        9.0617354942      -12.1718271972  MEMB      177             0.0000000000
     20472       177  OSM       H6F            34.4831849872        8.0627936185      -12.6417502350  MEMB      177             0.0000000000
     20473       177  OSM       H6G            33.3977370668        9.3277005868      -11.9424128024  MEMB      177             0.0000000000
     20474       177  OSM       C7F            35.3040688554        8.9499118702      -10.9045905575  MEMB      177             0.0000000000
     20475       177  OSM       H7F            36.1068244977        8.2076509480      -11.1046170922  MEMB      177             0.0000000000
     20476       177  OSM       H7G            34.6894334173        8.5265397067      -10.0762837265  MEMB      177             0.0000000000
     20477       177  OSM       C8F            35.9680311051       10.2673570725      -10.4863636033  MEMB      177             0.0000000000
     20478       177  OSM       H8F            36.5224470580       10.7387340702      -11.3238784781  MEMB      177             0.0000000000
     20479       177  OSM       H8G            36.7512399721       10.0339325197       -9.7324985008  MEMB      177             0.0000000000
     20480       177  OSM       C9F            34.9112516818       11.1887121310       -9.9468451116  MEMB      177             0.0000000000
     20481       177  OSM       H9F            34.4589243547       11.8896508834      -10.6650304067  MEMB      177             0.0000000000
     20482       177  OSM       C10F           34.5495364013       11.2325539329       -8.6595470490  MEMB      177             0.0000000000
     20483       177  OSM       H10F           33.8602184658       12.0219876189       -8.3271676880  MEMB      177             0.0000000000
     20484       177  OSM       C11F           35.1402978948       10.3847801408       -7.5666451421  MEMB      177             0.0000000000
     20485       177  OSM       H11F           35.6640072514       11.1387976209       -6.9690184452  MEMB      177             0.0000000000
     20486       177  OSM       H11G           35.9155683580        9.6655941958       -7.9146602063  MEMB      177             0.0000000000
     20487       177  OSM       C12F           34.2669157041        9.6463949536       -6.5409607003  MEMB      177             0.0000000000
     20488       177  OSM       H12F           34.1551643826        8.5776543298       -6.8292701464  MEMB      177             0.0000000000
     20489       177  OSM       H12G           33.2589926536       10.0826554376       -6.4756568550  MEMB      177             0.0000000000
     20490       177  OSM       C13F           34.8464954965        9.7974115367       -5.1297946470  MEMB      177             0.0000000000
     20491       177  OSM       H13F           35.9553892398        9.8583385374       -5.1534454181  MEMB      177             0.0000000000
     20492       177  OSM       H13G           34.5830210170        8.8820704264       -4.5479059600  MEMB      177             0.0000000000
     20493       177  OSM       C14F           34.2435996778       11.0090703318       -4.3868932830  MEMB      177             0.0000000000
     20494       177  OSM       H14F           34.5772199573       10.9336645119       -3.3362134675  MEMB      177             0.0000000000
     20495       177  OSM       H14G           33.1376020913       10.9136455969       -4.4079194966  MEMB      177             0.0000000000
     20496       177  OSM       C15F           34.5608470274       12.4368956872       -4.8689305841  MEMB      177             0.0000000000
     20497       177  OSM       H15F           34.1982537418       12.5780586029       -5.9098155121  MEMB      177             0.0000000000
     20498       177  OSM       H15G           35.6529847202       12.6018493139       -4.8668529994  MEMB      177             0.0000000000
     20499       177  OSM       C16F           33.8876132248       13.4808527461       -3.9571629004  MEMB      177             0.0000000000
     20500       177  OSM       H16F           33.8296007327       13.0961369049       -2.9163066767  MEMB      177             0.0000000000
     20501       177  OSM       H16G           32.8398896638       13.6043927515       -4.3179573434  MEMB      177             0.0000000000
     20502       177  OSM       C17F           34.5444820956       14.8706650960       -3.9173108999  MEMB      177             0.0000000000
     20503       177  OSM       H17F           33.7357447161       15.5541512619       -3.5713048569  MEMB      177             0.0000000000
     20504       177  OSM       H17G           34.8430191107       15.1896764482       -4.9404510797  MEMB      177             0.0000000000
     20505       177  OSM       C18F           35.7169126111       15.0651601823       -2.9447187432  MEMB      177             0.0000000000
     20506       177  OSM       H18F           35.4363592345       14.7277569126       -1.9243312944  MEMB      177             0.0000000000
     20507       177  OSM       H18G           35.9932544315       16.1420117395       -2.8846473740  MEMB      177             0.0000000000
     20508       177  OSM       H18H           36.6157219225       14.5077753645       -3.2757330486  MEMB      177             0.0000000000
     20509       178  SOPE      N             -30.5823712289      -14.3290517073      -20.5354839241  MEMB      178             0.0000000000
     20510       178  SOPE      HN1           -31.2331464992      -13.6287529140      -20.1240341106  MEMB      178             0.0000000000
     20511       178  SOPE      HN2           -29.6773943513      -14.3216976203      -20.0029197252  MEMB      178             0.0000000000
     20512       178  SOPE      HN3           -30.4372392487      -14.0377326969      -21.5385637210  MEMB      178             0.0000000000
     20513       178  SOPE      C12           -31.2433854658      -15.6841795384      -20.5405821771  MEMB      178             0.0000000000
     20514       178  SOPE      H12A          -31.7784269374      -15.8050470795      -19.5785037967  MEMB      178             0.0000000000
     20515       178  SOPE      H12B          -30.4356708492      -16.4468904630      -20.6075251621  MEMB      178             0.0000000000
     20516       178  SOPE      C11           -32.1931987134      -15.8477872218      -21.7549147929  MEMB      178             0.0000000000
     20517       178  SOPE      H11A          -32.4962420564      -16.9216876945      -21.8073433215  MEMB      178             0.0000000000
     20518       178  SOPE      H11B          -31.6025846162      -15.6450525380      -22.6798247944  MEMB      178             0.0000000000
     20519       178  SOPE      P             -34.7549026985      -15.3884036389      -21.1924828090  MEMB      178             0.0000000000
     20520       178  SOPE      O13           -34.9231937223      -16.8421187839      -21.3659065239  MEMB      178             0.0000000000
     20521       178  SOPE      O14           -35.7492289541      -14.5288876249      -21.8685727343  MEMB      178             0.0000000000
     20522       178  SOPE      O12           -33.3266257536      -14.9700174053      -21.7552144832  MEMB      178             0.0000000000
     20523       178  SOPE      O11           -34.5895198284      -14.8882992490      -19.6686571734  MEMB      178             0.0000000000
     20524       178  SOPE      C1            -34.5028706873      -13.4371755685      -19.6036450861  MEMB      178             0.0000000000
     20525       178  SOPE      HA            -35.4017815422      -12.9692523682      -20.0796278453  MEMB      178             0.0000000000
     20526       178  SOPE      HB            -33.5884447771      -13.0595081418      -20.1168310412  MEMB      178             0.0000000000
     20527       178  SOPE      C2            -34.5037716161      -12.7845782696      -18.1882623337  MEMB      178             0.0000000000
     20528       178  SOPE      HS            -33.6323250001      -13.1396431125      -17.5956715303  MEMB      178             0.0000000000
     20529       178  SOPE      O21           -35.7550852747      -13.0765929006      -17.5471587429  MEMB      178             0.0000000000
     20530       178  SOPE      C21           -35.7742515879      -14.1832085665      -16.8376903168  MEMB      178             0.0000000000
     20531       178  SOPE      O22           -34.8035406729      -14.7684855394      -16.3790442248  MEMB      178             0.0000000000
     20532       178  SOPE      C22           -37.2266733692      -14.6197226644      -16.6783752377  MEMB      178             0.0000000000
     20533       178  SOPE      H2R           -37.7199018561      -14.4353009666      -17.6604966166  MEMB      178             0.0000000000
     20534       178  SOPE      H2S           -37.7349083461      -13.9981827622      -15.9231147689  MEMB      178             0.0000000000
     20535       178  SOPE      C3            -34.3434815870      -11.2355675801      -18.3837721002  MEMB      178             0.0000000000
     20536       178  SOPE      HX            -35.0587218692      -10.9193067262      -19.1758305820  MEMB      178             0.0000000000
     20537       178  SOPE      HY            -33.3161288212      -10.9994102963      -18.7382951845  MEMB      178             0.0000000000
     20538       178  SOPE      O31           -34.6766925577      -10.4763184973      -17.2231586954  MEMB      178             0.0000000000
     20539       178  SOPE      C31           -33.9686743408      -10.7038455495      -16.1538859835  MEMB      178             0.0000000000
     20540       178  SOPE      O32           -32.8581000306      -11.2060897475      -16.0831953539  MEMB      178             0.0000000000
     20541       178  SOPE      C32           -34.8414447022      -10.4077294943      -14.9609315648  MEMB      178             0.0000000000
     20542       178  SOPE      H2X           -35.5132138316       -9.5475570995      -15.1673881352  MEMB      178             0.0000000000
     20543       178  SOPE      H2Y           -34.1064038992      -10.1074093066      -14.1969087218  MEMB      178             0.0000000000
     20544       178  SOPE      C23           -37.3344605438      -16.1239579280      -16.3934099493  MEMB      178             0.0000000000
     20545       178  SOPE      H3R           -36.5367536430      -16.6721913678      -16.9459939176  MEMB      178             0.0000000000
     20546       178  SOPE      H3S           -38.2879570230      -16.4603905677      -16.8760895498  MEMB      178             0.0000000000
     20547       178  SOPE      C24           -37.4301802537      -16.6201753347      -14.9299100794  MEMB      178             0.0000000000
     20548       178  SOPE      H4R           -38.4126720696      -17.1361280486      -14.8417945287  MEMB      178             0.0000000000
     20549       178  SOPE      H4S           -36.7047931858      -17.4284174812      -14.7792243200  MEMB      178             0.0000000000
     20550       178  SOPE      C25           -37.2499478617      -15.6463036327      -13.7483757286  MEMB      178             0.0000000000
     20551       178  SOPE      H5R           -36.1583944813      -15.4816769463      -13.5997518463  MEMB      178             0.0000000000
     20552       178  SOPE      H5S           -37.7206159962      -14.6667121479      -13.9594135381  MEMB      178             0.0000000000
     20553       178  SOPE      C26           -37.8748146558      -16.2415402822      -12.4621574971  MEMB      178             0.0000000000
     20554       178  SOPE      H6R           -38.9340630719      -16.5124667274      -12.6625095595  MEMB      178             0.0000000000
     20555       178  SOPE      H6S           -37.3379729043      -17.1973745836      -12.2610987644  MEMB      178             0.0000000000
     20556       178  SOPE      C27           -37.7851185518      -15.3693427203      -11.1940770280  MEMB      178             0.0000000000
     20557       178  SOPE      H7R           -37.2388735844      -14.4316600434      -11.4800213622  MEMB      178             0.0000000000
     20558       178  SOPE      H7S           -38.7869643455      -15.0399896727      -10.8293759137  MEMB      178             0.0000000000
     20559       178  SOPE      C28           -36.9122030126      -16.0646587909      -10.1017159150  MEMB      178             0.0000000000
     20560       178  SOPE      H8R           -36.1223790936      -16.5496404626      -10.7034089059  MEMB      178             0.0000000000
     20561       178  SOPE      H8S           -36.4271989049      -15.2218800882       -9.5665586968  MEMB      178             0.0000000000
     20562       178  SOPE      C29           -37.4040364962      -17.1118779994       -9.1107043595  MEMB      178             0.0000000000
     20563       178  SOPE      H91           -38.5018693101      -17.1281470045       -9.0584827681  MEMB      178             0.0000000000
     20564       178  SOPE      C210          -36.7354580904      -17.9864332213       -8.2813820227  MEMB      178             0.0000000000
     20565       178  SOPE      H101          -37.3813954371      -18.7037828822       -7.7631783368  MEMB      178             0.0000000000
     20566       178  SOPE      C211          -35.2616725717      -18.3233870405       -7.9662772206  MEMB      178             0.0000000000
     20567       178  SOPE      H11R          -34.7004778916      -18.1126324599       -8.8947125189  MEMB      178             0.0000000000
     20568       178  SOPE      H11S          -35.2896110483      -19.4329508515       -8.0466616825  MEMB      178             0.0000000000
     20569       178  SOPE      C212          -34.0850436749      -18.1397333445       -6.8179471922  MEMB      178             0.0000000000
     20570       178  SOPE      H12R          -33.2575343148      -17.7745210573       -7.4361305299  MEMB      178             0.0000000000
     20571       178  SOPE      H12S          -33.8062594427      -19.1952881519       -6.6962318000  MEMB      178             0.0000000000
     20572       178  SOPE      C213          -33.6923230725      -17.5645129416       -5.3179816119  MEMB      178             0.0000000000
     20573       178  SOPE      H13R          -32.7184549067      -17.1314797600       -5.5847935269  MEMB      178             0.0000000000
     20574       178  SOPE      H13S          -33.5163631417      -18.4812163397       -4.7189469820  MEMB      178             0.0000000000
     20575       178  SOPE      C214          -34.0343581510      -16.4357256850       -4.2048314658  MEMB      178             0.0000000000
     20576       178  SOPE      H14R          -33.4808885917      -16.9327686656       -3.3668688067  MEMB      178             0.0000000000
     20577       178  SOPE      H14S          -35.0325368886      -16.4706460460       -3.7520530100  MEMB      178             0.0000000000
     20578       178  SOPE      C215          -33.3510780072      -15.0133372173       -4.0055911400  MEMB      178             0.0000000000
     20579       178  SOPE      H15R          -32.2536719927      -15.1284514116       -4.1392955044  MEMB      178             0.0000000000
     20580       178  SOPE      H15S          -33.5308499657      -14.8328642500       -2.9184401971  MEMB      178             0.0000000000
     20581       178  SOPE      C216          -33.7383281079      -13.6100275239       -4.6172628744  MEMB      178             0.0000000000
     20582       178  SOPE      H16R          -33.5956808208      -13.5233308956       -5.6997413122  MEMB      178             0.0000000000
     20583       178  SOPE      H16S          -32.9772432186      -12.8756608394       -4.2824711868  MEMB      178             0.0000000000
     20584       178  SOPE      C217          -35.0712712843      -12.9159205423       -4.2955035724  MEMB      178             0.0000000000
     20585       178  SOPE      H17R          -35.9174188839      -13.6276372790       -4.2201105257  MEMB      178             0.0000000000
     20586       178  SOPE      H17S          -35.2413341498      -12.2499935410       -5.1777752249  MEMB      178             0.0000000000
     20587       178  SOPE      C218          -35.0668238308      -11.9229798453       -3.1378317883  MEMB      178             0.0000000000
     20588       178  SOPE      H18R          -36.1074261638      -11.6987586587       -2.8399489789  MEMB      178             0.0000000000
     20589       178  SOPE      H18S          -34.5479508459      -10.9788347282       -3.4145849344  MEMB      178             0.0000000000
     20590       178  SOPE      H18T          -34.5634679186      -12.3300318648       -2.2614204213  MEMB      178             0.0000000000
     20591       178  SOPE      C33           -35.6360816781      -11.6895932630      -14.6282069657  MEMB      178             0.0000000000
     20592       178  SOPE      H3X           -35.0665832995      -12.5971700152      -14.9438421976  MEMB      178             0.0000000000
     20593       178  SOPE      H3Y           -36.5879063228      -11.6785137482      -15.2141704518  MEMB      178             0.0000000000
     20594       178  SOPE      C34           -35.9021340364      -11.8830524655      -13.1368155631  MEMB      178             0.0000000000
     20595       178  SOPE      H4X           -36.3471865163      -12.8918358068      -12.9763956518  MEMB      178             0.0000000000
     20596       178  SOPE      H4Y           -36.6588181008      -11.1233671306      -12.8411890120  MEMB      178             0.0000000000
     20597       178  SOPE      C35           -34.6285914162      -11.7492292843      -12.2811491999  MEMB      178             0.0000000000
     20598       178  SOPE      H5X           -34.2330040645      -10.7154187563      -12.3679560527  MEMB      178             0.0000000000
     20599       178  SOPE      H5Y           -33.8488140060      -12.4447306896      -12.6639679827  MEMB      178             0.0000000000
     20600       178  SOPE      C36           -34.8543484579      -11.9416843267      -10.7810414166  MEMB      178             0.0000000000
     20601       178  SOPE      H6X           -33.9519910428      -11.5912332771      -10.2283131139  MEMB      178             0.0000000000
     20602       178  SOPE      H6Y           -35.0262163665      -13.0086347471      -10.5440186054  MEMB      178             0.0000000000
     20603       178  SOPE      C37           -36.0994821128      -11.2016730000      -10.3184713797  MEMB      178             0.0000000000
     20604       178  SOPE      H7X           -36.9732688694      -11.6683490318      -10.8220685902  MEMB      178             0.0000000000
     20605       178  SOPE      H7Y           -36.0432712881      -10.1389541842      -10.6449423445  MEMB      178             0.0000000000
     20606       178  SOPE      C38           -36.3855936942      -11.2956597330       -8.8236221466  MEMB      178             0.0000000000
     20607       178  SOPE      H8X           -37.3433975246      -10.7411795586       -8.7255231787  MEMB      178             0.0000000000
     20608       178  SOPE      H8Y           -35.6048957621      -10.7539598546       -8.2466074443  MEMB      178             0.0000000000
     20609       178  SOPE      C39           -36.6315212576      -12.7305964836       -8.2980500466  MEMB      178             0.0000000000
     20610       178  SOPE      H9X           -35.6512151803      -13.2391256303       -8.2060185681  MEMB      178             0.0000000000
     20611       178  SOPE      H9Y           -37.2189173277      -13.2591035941       -9.0781911884  MEMB      178             0.0000000000
     20612       178  SOPE      C310          -37.4475667388      -12.7632734543       -6.9805112904  MEMB      178             0.0000000000
     20613       178  SOPE      H10X          -37.9994576314      -11.7900845955       -7.0279837935  MEMB      178             0.0000000000
     20614       178  SOPE      H10Y          -36.8295447698      -12.6885599484       -6.0878762838  MEMB      178             0.0000000000
     20615       178  SOPE      C311          -38.5798792250      -13.8133818752       -6.7283068127  MEMB      178             0.0000000000
     20616       178  SOPE      H11X          -39.1922714800      -14.0280417316       -7.6186918675  MEMB      178             0.0000000000
     20617       178  SOPE      H11Y          -39.0585724384      -13.0818578485       -6.0614483132  MEMB      178             0.0000000000
     20618       178  SOPE      C312          -38.8253728620      -14.7380375318       -5.5074180646  MEMB      178             0.0000000000
     20619       178  SOPE      H12X          -37.9586817353      -14.5405209626       -4.8521677894  MEMB      178             0.0000000000
     20620       178  SOPE      H12Y          -38.9391546022      -15.7876989150       -5.8605686878  MEMB      178             0.0000000000
     20621       178  SOPE      C313          -39.9528070459      -14.5482417371       -4.4495157657  MEMB      178             0.0000000000
     20622       178  SOPE      H13X          -40.9295497764      -14.9001587781       -4.8570985117  MEMB      178             0.0000000000
     20623       178  SOPE      H13Y          -40.0864289582      -13.5144953490       -4.1366381147  MEMB      178             0.0000000000
     20624       178  SOPE      C314          -39.5053866527      -15.4660973401       -3.2835418937  MEMB      178             0.0000000000
     20625       178  SOPE      H14X          -38.4216530828      -15.6811376961       -3.3543685660  MEMB      178             0.0000000000
     20626       178  SOPE      H14Y          -39.8879649303      -16.3922477944       -3.6933045026  MEMB      178             0.0000000000
     20627       178  SOPE      C315          -39.6545469545      -15.1998798766       -1.7590592880  MEMB      178             0.0000000000
     20628       178  SOPE      H15X          -40.6877960060      -15.1394896270       -1.3527750874  MEMB      178             0.0000000000
     20629       178  SOPE      H15Y          -39.1528902133      -14.2465558484       -1.4776948001  MEMB      178             0.0000000000
     20630       178  SOPE      C316          -38.9108362188      -16.3189787370       -0.9828833177  MEMB      178             0.0000000000
     20631       178  SOPE      H16X          -39.1289246632      -17.2979820492       -1.4621752394  MEMB      178             0.0000000000
     20632       178  SOPE      H16Y          -39.2743772703      -16.3635352974        0.0587516320  MEMB      178             0.0000000000
     20633       178  SOPE      C317          -37.3901324311      -16.1353699347       -0.9286489227  MEMB      178             0.0000000000
     20634       178  SOPE      H17X          -37.0758015202      -15.6719463918        0.0294122810  MEMB      178             0.0000000000
     20635       178  SOPE      H17Y          -37.1136887213      -15.4261485672       -1.7385895607  MEMB      178             0.0000000000
     20636       178  SOPE      C318          -36.5987689304      -17.4250048286       -1.1143206241  MEMB      178             0.0000000000
     20637       178  SOPE      H18X          -35.5152789951      -17.2070027636       -1.2316768229  MEMB      178             0.0000000000
     20638       178  SOPE      H18Y          -36.9378741377      -17.9419357694       -2.0355713839  MEMB      178             0.0000000000
     20639       178  SOPE      H18Z          -36.7314172589      -18.1042005209       -0.2440557131  MEMB      178             0.0000000000
     20640       179  SLPC      N              24.6708922705       31.1341993157      -18.5853479112  MEMB      179             0.0000000000
     20641       179  SLPC      C13            25.5995462445       30.5713564072      -19.6202032410  MEMB      179             0.0000000000
     20642       179  SLPC      H13A           25.5461384027       31.2010445993      -20.5079202522  MEMB      179             0.0000000000
     20643       179  SLPC      H13B           26.6289870823       30.6736130678      -19.2953902681  MEMB      179             0.0000000000
     20644       179  SLPC      H13C           25.4099375773       29.5301703937      -19.8583095381  MEMB      179             0.0000000000
     20645       179  SLPC      C14            23.2532296098       31.1160398437      -19.0769852130  MEMB      179             0.0000000000
     20646       179  SLPC      H14A           23.1303852444       31.7204077894      -19.9672412856  MEMB      179             0.0000000000
     20647       179  SLPC      H14B           22.8758584732       30.1121792435      -19.2197327745  MEMB      179             0.0000000000
     20648       179  SLPC      H14C           22.6195942935       31.5353088775      -18.2858657740  MEMB      179             0.0000000000
     20649       179  SLPC      C15            25.0392827200       32.5874385163      -18.4184571466  MEMB      179             0.0000000000
     20650       179  SLPC      H15A           25.0203585209       33.0794015109      -19.3929976577  MEMB      179             0.0000000000
     20651       179  SLPC      H15B           24.3280454634       33.1041283858      -17.7613914157  MEMB      179             0.0000000000
     20652       179  SLPC      H15C           26.0378992230       32.7267678656      -18.0223480624  MEMB      179             0.0000000000
     20653       179  SLPC      C12            24.7215687160       30.3964397345      -17.2641156847  MEMB      179             0.0000000000
     20654       179  SLPC      H12A           25.7041924186       30.4833974792      -16.8530670762  MEMB      179             0.0000000000
     20655       179  SLPC      H12B           24.5240615822       29.3408921866      -17.4273109573  MEMB      179             0.0000000000
     20656       179  SLPC      C11            23.7029776178       30.8268787617      -16.1975048999  MEMB      179             0.0000000000
     20657       179  SLPC      H11A           23.4587828476       31.8838825585      -16.3685146555  MEMB      179             0.0000000000
     20658       179  SLPC      H11B           24.1006504768       30.7234897208      -15.1619902139  MEMB      179             0.0000000000
     20659       179  SLPC      P              21.1141483813       30.4531034937      -15.8509321225  MEMB      179             0.0000000000
     20660       179  SLPC      O13            20.3097665547       30.5525554523      -17.0896622406  MEMB      179             0.0000000000
     20661       179  SLPC      O14            20.7048251023       29.5138640193      -14.7836905811  MEMB      179             0.0000000000
     20662       179  SLPC      O12            22.5600592392       30.0227014779      -16.3611408732  MEMB      179             0.0000000000
     20663       179  SLPC      O11            21.2954207153       31.9205005994      -15.2344781319  MEMB      179             0.0000000000
     20664       179  SLPC      C1             20.7823347253       33.0310913178      -16.0070201330  MEMB      179             0.0000000000
     20665       179  SLPC      HA             21.3864011685       33.1421400500      -16.9413814286  MEMB      179             0.0000000000
     20666       179  SLPC      HB             19.7458063558       32.8807276278      -16.3524300301  MEMB      179             0.0000000000
     20667       179  SLPC      C2             20.7904595932       34.4121647125      -15.2601381717  MEMB      179             0.0000000000
     20668       179  SLPC      HS             20.6984564002       35.1754617302      -16.0692309817  MEMB      179             0.0000000000
     20669       179  SLPC      O21            21.9607393336       34.6418772590      -14.4977761761  MEMB      179             0.0000000000
     20670       179  SLPC      C21            23.0862851902       34.1823881191      -14.9252193653  MEMB      179             0.0000000000
     20671       179  SLPC      O22            23.4337769591       34.0610702643      -16.0859072962  MEMB      179             0.0000000000
     20672       179  SLPC      C22            23.9442166480       33.8697040929      -13.7017271390  MEMB      179             0.0000000000
     20673       179  SLPC      H2R            23.6181012533       32.8646341873      -13.3557550236  MEMB      179             0.0000000000
     20674       179  SLPC      H2S            24.9834941914       33.8042918726      -14.0601254642  MEMB      179             0.0000000000
     20675       179  SLPC      C3             19.6471240369       34.7028840841      -14.2390346055  MEMB      179             0.0000000000
     20676       179  SLPC      HX             18.6981411145       34.2891037723      -14.5976892417  MEMB      179             0.0000000000
     20677       179  SLPC      HY             19.5217288854       35.8137908646      -14.2414172383  MEMB      179             0.0000000000
     20678       179  SLPC      O31            19.9239942566       34.1686775764      -12.9128119413  MEMB      179             0.0000000000
     20679       179  SLPC      C31            19.7278476142       34.9824800725      -11.8890053377  MEMB      179             0.0000000000
     20680       179  SLPC      O32            19.3671300811       36.1428980261      -11.9567310564  MEMB      179             0.0000000000
     20681       179  SLPC      C32            19.9161659094       34.2876064777      -10.5318760329  MEMB      179             0.0000000000
     20682       179  SLPC      H2X            18.8921092694       34.1149151770      -10.1362984534  MEMB      179             0.0000000000
     20683       179  SLPC      H2Y            20.4060281215       35.0492081801       -9.8891143966  MEMB      179             0.0000000000
     20684       179  SLPC      C23            23.6974225387       34.9257152257      -12.5840038727  MEMB      179             0.0000000000
     20685       179  SLPC      H3R            22.7242218751       34.6660102180      -12.1060706778  MEMB      179             0.0000000000
     20686       179  SLPC      H3S            23.5945456640       35.9347376383      -13.0330012813  MEMB      179             0.0000000000
     20687       179  SLPC      C24            24.7222039124       35.1205661884      -11.4575829061  MEMB      179             0.0000000000
     20688       179  SLPC      H4R            24.1234352037       35.3687581948      -10.5590310696  MEMB      179             0.0000000000
     20689       179  SLPC      H4S            25.3231657109       36.0293959908      -11.5914011623  MEMB      179             0.0000000000
     20690       179  SLPC      C25            25.6172592731       33.9263105958      -11.2185497464  MEMB      179             0.0000000000
     20691       179  SLPC      H5R            26.4888021181       34.1262930440      -10.5525797953  MEMB      179             0.0000000000
     20692       179  SLPC      H5S            26.0201773954       33.5332645840      -12.1787851479  MEMB      179             0.0000000000
     20693       179  SLPC      C26            24.7968261372       32.8664526084      -10.5324307145  MEMB      179             0.0000000000
     20694       179  SLPC      H6R            25.4888897352       32.0144917420      -10.5466982745  MEMB      179             0.0000000000
     20695       179  SLPC      H6S            23.8930382540       32.6199794249      -11.1379339588  MEMB      179             0.0000000000
     20696       179  SLPC      C27            24.3680126302       33.2160359573       -9.1054127785  MEMB      179             0.0000000000
     20697       179  SLPC      H7R            23.5867270419       32.4851282046       -8.8086900591  MEMB      179             0.0000000000
     20698       179  SLPC      H7S            23.8487190216       34.1945310266       -9.0143520520  MEMB      179             0.0000000000
     20699       179  SLPC      C28            25.4894374554       33.1340085513       -7.9849219032  MEMB      179             0.0000000000
     20700       179  SLPC      H8R            24.7211826468       33.2393164817       -7.1859020711  MEMB      179             0.0000000000
     20701       179  SLPC      H8S            25.7700665862       34.0670426725       -8.5300798914  MEMB      179             0.0000000000
     20702       179  SLPC      C29            26.7731132486       33.5311557470       -7.2751970332  MEMB      179             0.0000000000
     20703       179  SLPC      H9R            27.6821476751       33.6724147681       -7.8855099168  MEMB      179             0.0000000000
     20704       179  SLPC      C210           26.8257033922       33.7520966089       -5.9359834507  MEMB      179             0.0000000000
     20705       179  SLPC      H10R           27.7804862955       34.0394777303       -5.4766676634  MEMB      179             0.0000000000
     20706       179  SLPC      C211           25.6745265615       33.6442581848       -4.9500263061  MEMB      179             0.0000000000
     20707       179  SLPC      H11R           24.9714812863       32.8260496101       -5.2080504439  MEMB      179             0.0000000000
     20708       179  SLPC      H11S           25.0746065314       34.5815701546       -4.9640692625  MEMB      179             0.0000000000
     20709       179  SLPC      C212           26.2089445228       33.3802467748       -3.5738025134  MEMB      179             0.0000000000
     20710       179  SLPC      H12R           26.1608335780       32.3497286358       -3.2075345937  MEMB      179             0.0000000000
     20711       179  SLPC      C213           26.6316830618       34.3015386739       -2.7222315903  MEMB      179             0.0000000000
     20712       179  SLPC      H13R           27.0095460627       34.0373928024       -1.7284510596  MEMB      179             0.0000000000
     20713       179  SLPC      C214           26.6142105143       35.7367190359       -3.0138747976  MEMB      179             0.0000000000
     20714       179  SLPC      H14R           26.5857004537       35.9538352511       -4.0984585208  MEMB      179             0.0000000000
     20715       179  SLPC      H14S           27.4903058709       36.2469520117       -2.6232516752  MEMB      179             0.0000000000
     20716       179  SLPC      C215           25.2916349094       36.0599089130       -2.3315074672  MEMB      179             0.0000000000
     20717       179  SLPC      H15R           24.4649175762       35.5304763481       -2.8584001453  MEMB      179             0.0000000000
     20718       179  SLPC      H15S           25.1403778072       37.1081517662       -2.5263947359  MEMB      179             0.0000000000
     20719       179  SLPC      C216           25.1108629952       35.7971697471       -0.8241826896  MEMB      179             0.0000000000
     20720       179  SLPC      H16R           25.0706970132       36.7457975787       -0.2526352517  MEMB      179             0.0000000000
     20721       179  SLPC      H16S           25.9775939840       35.2501894586       -0.4159302948  MEMB      179             0.0000000000
     20722       179  SLPC      C217           23.8503333601       34.9618494133       -0.5549518342  MEMB      179             0.0000000000
     20723       179  SLPC      H17R           24.0072572917       34.4213818823        0.4025720844  MEMB      179             0.0000000000
     20724       179  SLPC      H17S           23.7925131797       34.1819149908       -1.3496037558  MEMB      179             0.0000000000
     20725       179  SLPC      C218           22.5258546184       35.7446177950       -0.5214342085  MEMB      179             0.0000000000
     20726       179  SLPC      H18R           22.4866579963       36.5125028755        0.2754021949  MEMB      179             0.0000000000
     20727       179  SLPC      H18S           21.6857196637       35.0774714362       -0.2923059995  MEMB      179             0.0000000000
     20728       179  SLPC      H18T           22.3005305218       36.2065132869       -1.5045570541  MEMB      179             0.0000000000
     20729       179  SLPC      C33            20.7329564518       32.9639299009      -10.4605480193  MEMB      179             0.0000000000
     20730       179  SLPC      H3X            21.7654272343       33.2408635932      -10.1553840625  MEMB      179             0.0000000000
     20731       179  SLPC      H3Y            20.8086700914       32.4618329841      -11.4511162313  MEMB      179             0.0000000000
     20732       179  SLPC      C34            20.1449800925       31.9643002685       -9.4304955822  MEMB      179             0.0000000000
     20733       179  SLPC      H4X            19.1961239787       31.5503526787       -9.8449166447  MEMB      179             0.0000000000
     20734       179  SLPC      H4Y            19.8852265617       32.5333512537       -8.5105223762  MEMB      179             0.0000000000
     20735       179  SLPC      C35            21.0879099401       30.7979222538       -9.0416013363  MEMB      179             0.0000000000
     20736       179  SLPC      H5X            22.1246319580       31.0763296061       -9.3199843765  MEMB      179             0.0000000000
     20737       179  SLPC      H5Y            20.8391659223       29.9053099206       -9.6624503482  MEMB      179             0.0000000000
     20738       179  SLPC      C36            21.0538012748       30.4065416395       -7.5359781691  MEMB      179             0.0000000000
     20739       179  SLPC      H6X            20.1851278480       29.7450790665       -7.3893316945  MEMB      179             0.0000000000
     20740       179  SLPC      H6Y            20.8921431852       31.3144107561       -6.9172607066  MEMB      179             0.0000000000
     20741       179  SLPC      C37            22.3381739417       29.7138544969       -7.0138408193  MEMB      179             0.0000000000
     20742       179  SLPC      H7X            23.0461656213       30.5243157215       -6.7578877293  MEMB      179             0.0000000000
     20743       179  SLPC      H7Y            22.7475856388       29.1140291817       -7.8585810067  MEMB      179             0.0000000000
     20744       179  SLPC      C38            22.2510992637       28.7499866290       -5.8033605496  MEMB      179             0.0000000000
     20745       179  SLPC      H8X            22.5742102575       27.7306352882       -6.1152226383  MEMB      179             0.0000000000
     20746       179  SLPC      H8Y            21.1997697504       28.6932459321       -5.5094724435  MEMB      179             0.0000000000
     20747       179  SLPC      C39            22.9796371548       29.1031022801       -4.4875504413  MEMB      179             0.0000000000
     20748       179  SLPC      H9X            24.0582473772       28.8518886543       -4.5130197004  MEMB      179             0.0000000000
     20749       179  SLPC      H9Y            22.5367582342       28.4416697714       -3.7059632863  MEMB      179             0.0000000000
     20750       179  SLPC      C310           22.8052131812       30.5656977057       -4.0740751441  MEMB      179             0.0000000000
     20751       179  SLPC      H10X           21.7149166075       30.7837710152       -4.0191725274  MEMB      179             0.0000000000
     20752       179  SLPC      H10Y           23.2519764008       31.2339399274       -4.8402599167  MEMB      179             0.0000000000
     20753       179  SLPC      C311           23.4560770514       30.9239023325       -2.7389717087  MEMB      179             0.0000000000
     20754       179  SLPC      H11X           23.2238910752       31.9972463447       -2.5383229464  MEMB      179             0.0000000000
     20755       179  SLPC      H11Y           24.5614594457       30.8442714196       -2.7773787004  MEMB      179             0.0000000000
     20756       179  SLPC      C312           22.9466296805       30.0836568511       -1.5749761867  MEMB      179             0.0000000000
     20757       179  SLPC      H12X           23.7838329323       29.5012326129       -1.1274133394  MEMB      179             0.0000000000
     20758       179  SLPC      H12Y           22.1554471128       29.3659578968       -1.8891858063  MEMB      179             0.0000000000
     20759       179  SLPC      C313           22.3115975604       30.9907397175       -0.5411332612  MEMB      179             0.0000000000
     20760       179  SLPC      H13X           22.9855536020       31.8510241398       -0.3267982174  MEMB      179             0.0000000000
     20761       179  SLPC      H13Y           22.2098579318       30.3766773458        0.3796813563  MEMB      179             0.0000000000
     20762       179  SLPC      C314           20.9123369822       31.4638894919       -0.9764675537  MEMB      179             0.0000000000
     20763       179  SLPC      H14X           20.1937397033       30.8131440558       -0.4400502573  MEMB      179             0.0000000000
     20764       179  SLPC      H14Y           20.7799094875       31.3004323001       -2.0674433047  MEMB      179             0.0000000000
     20765       179  SLPC      C315           20.6229234875       32.9414977228       -0.7094933530  MEMB      179             0.0000000000
     20766       179  SLPC      H15X           21.0645706525       33.5215323190       -1.5557817503  MEMB      179             0.0000000000
     20767       179  SLPC      H15Y           21.1541942263       33.2429354763        0.2134651893  MEMB      179             0.0000000000
     20768       179  SLPC      C316           19.1507161124       33.3781303644       -0.5624696330  MEMB      179             0.0000000000
     20769       179  SLPC      H16X           18.7958952096       33.6937703596       -1.5708418145  MEMB      179             0.0000000000
     20770       179  SLPC      H16Y           19.1288355262       34.2940776308        0.0664021374  MEMB      179             0.0000000000
     20771       179  SLPC      C317           18.1415616821       32.3302366963       -0.0385030517  MEMB      179             0.0000000000
     20772       179  SLPC      H17X           18.1928823933       31.4624701365       -0.7281101135  MEMB      179             0.0000000000
     20773       179  SLPC      H17Y           17.1230177986       32.7632573516       -0.1554922041  MEMB      179             0.0000000000
     20774       179  SLPC      C318           18.2695146445       31.8036317679        1.4007476402  MEMB      179             0.0000000000
     20775       179  SLPC      H18X           19.1836046484       31.2018615926        1.5304540383  MEMB      179             0.0000000000
     20776       179  SLPC      H18Y           17.4199143185       31.1308845506        1.6369089664  MEMB      179             0.0000000000
     20777       179  SLPC      H18Z           18.2797156634       32.6112851288        2.1583669809  MEMB      179             0.0000000000
     20778       180  CHL1      C3            -28.7320326370       25.7792104030      -17.4448831116  MEMB      180             0.0000000000
     20779       180  CHL1      H3            -27.9781846219       24.9687837229      -17.2873520250  MEMB      180             0.0000000000
     20780       180  CHL1      O3            -28.8037876488       26.0800009867      -18.8279904147  MEMB      180             0.0000000000
     20781       180  CHL1      H3'           -29.3693874969       26.8582410041      -18.8622983798  MEMB      180             0.0000000000
     20782       180  CHL1      C4            -30.1060141642       25.3105347915      -16.9356480138  MEMB      180             0.0000000000
     20783       180  CHL1      H4A           -30.8599702985       26.0923287408      -17.1660847397  MEMB      180             0.0000000000
     20784       180  CHL1      H4B           -30.3889839669       24.4067657683      -17.5235657190  MEMB      180             0.0000000000
     20785       180  CHL1      C5            -30.0950379450       25.0351693195      -15.4431568884  MEMB      180             0.0000000000
     20786       180  CHL1      C6            -30.4488692311       23.8328444713      -14.9594808798  MEMB      180             0.0000000000
     20787       180  CHL1      H6            -30.7680668163       23.0428501272      -15.6577832030  MEMB      180             0.0000000000
     20788       180  CHL1      C7            -30.4853367985       23.4982118431      -13.4924261229  MEMB      180             0.0000000000
     20789       180  CHL1      H7A           -31.4279920558       22.9694883671      -13.2312241769  MEMB      180             0.0000000000
     20790       180  CHL1      H7B           -29.6460081993       22.8073466489      -13.2547062798  MEMB      180             0.0000000000
     20791       180  CHL1      C8            -30.3539605971       24.7493990772      -12.5791886712  MEMB      180             0.0000000000
     20792       180  CHL1      H8            -31.3304954592       25.2799023499      -12.5922192301  MEMB      180             0.0000000000
     20793       180  CHL1      C14           -30.0427629158       24.3248410018      -11.1476300261  MEMB      180             0.0000000000
     20794       180  CHL1      H14           -29.0527480922       23.7992890187      -11.1895433832  MEMB      180             0.0000000000
     20795       180  CHL1      C15           -31.0063088636       23.3227496150      -10.4834916201  MEMB      180             0.0000000000
     20796       180  CHL1      H15A          -32.0543982796       23.6037503428      -10.7239116206  MEMB      180             0.0000000000
     20797       180  CHL1      H15B          -30.8228725365       22.2851547359      -10.8286359163  MEMB      180             0.0000000000
     20798       180  CHL1      C16           -30.7449022821       23.5025047266       -8.9788752683  MEMB      180             0.0000000000
     20799       180  CHL1      H16A          -31.6986823002       23.7872354724       -8.4845066964  MEMB      180             0.0000000000
     20800       180  CHL1      H16B          -30.3730820030       22.5810561264       -8.4999434579  MEMB      180             0.0000000000
     20801       180  CHL1      C17           -29.7114309707       24.6675641514       -8.8310521727  MEMB      180             0.0000000000
     20802       180  CHL1      H17           -28.6956012210       24.2079551434       -8.8580166199  MEMB      180             0.0000000000
     20803       180  CHL1      C13           -29.8640751052       25.4698933217      -10.1489976049  MEMB      180             0.0000000000
     20804       180  CHL1      C18           -31.1577899806       26.3234980864      -10.0482097466  MEMB      180             0.0000000000
     20805       180  CHL1      H18A          -31.4463381530       26.7343745311      -11.0334511361  MEMB      180             0.0000000000
     20806       180  CHL1      H18B          -32.0114792640       25.7349444069       -9.6626322418  MEMB      180             0.0000000000
     20807       180  CHL1      H18C          -30.9944271433       27.1813292960       -9.3665095368  MEMB      180             0.0000000000
     20808       180  CHL1      C12           -28.6669499011       26.3081253216      -10.6465842044  MEMB      180             0.0000000000
     20809       180  CHL1      H12A          -28.4898599591       27.1830912720       -9.9930480391  MEMB      180             0.0000000000
     20810       180  CHL1      H12B          -27.7540515353       25.6755044453      -10.6292525492  MEMB      180             0.0000000000
     20811       180  CHL1      C11           -28.8982639265       26.8198950229      -12.0877399023  MEMB      180             0.0000000000
     20812       180  CHL1      H11A          -29.7125322516       27.5706657641      -12.0453532847  MEMB      180             0.0000000000
     20813       180  CHL1      H11B          -27.9799521121       27.3437301351      -12.4248833501  MEMB      180             0.0000000000
     20814       180  CHL1      C9            -29.2626563504       25.6929093563      -13.1045522059  MEMB      180             0.0000000000
     20815       180  CHL1      H9            -28.3430266665       25.0569865946      -13.1715165232  MEMB      180             0.0000000000
     20816       180  CHL1      C10           -29.5499773413       26.1816097787      -14.5568909013  MEMB      180             0.0000000000
     20817       180  CHL1      C19           -30.6225697023       27.3049809071      -14.5176838705  MEMB      180             0.0000000000
     20818       180  CHL1      H19A          -31.5285781970       26.9691520183      -13.9726522184  MEMB      180             0.0000000000
     20819       180  CHL1      H19B          -30.2251934921       28.2105431130      -14.0180963688  MEMB      180             0.0000000000
     20820       180  CHL1      H19C          -30.9320933753       27.6114344478      -15.5367783472  MEMB      180             0.0000000000
     20821       180  CHL1      C1            -28.2303223747       26.7336315655      -15.1798171484  MEMB      180             0.0000000000
     20822       180  CHL1      H1A           -27.9267234371       27.6551271192      -14.6406732633  MEMB      180             0.0000000000
     20823       180  CHL1      H1B           -27.4264251740       25.9789558231      -15.0241760177  MEMB      180             0.0000000000
     20824       180  CHL1      C2            -28.3066739863       27.0370679130      -16.6876489744  MEMB      180             0.0000000000
     20825       180  CHL1      H2A           -27.3175343844       27.3862520773      -17.0550513093  MEMB      180             0.0000000000
     20826       180  CHL1      H2B           -29.0426604855       27.8523517068      -16.8632059377  MEMB      180             0.0000000000
     20827       180  CHL1      C20           -29.8611625652       25.3868146765       -7.4779613147  MEMB      180             0.0000000000
     20828       180  CHL1      H20           -30.9133408911       25.7470791074       -7.3953962329  MEMB      180             0.0000000000
     20829       180  CHL1      C21           -28.9265989269       26.6114711906       -7.3806198072  MEMB      180             0.0000000000
     20830       180  CHL1      H21A          -27.8788455908       26.3237192809       -7.6049123403  MEMB      180             0.0000000000
     20831       180  CHL1      H21B          -28.9614844418       27.0466121838       -6.3609818181  MEMB      180             0.0000000000
     20832       180  CHL1      H21C          -29.2461055829       27.4060854891       -8.0811867401  MEMB      180             0.0000000000
     20833       180  CHL1      C22           -29.6100396776       24.4645484448       -6.2518301286  MEMB      180             0.0000000000
     20834       180  CHL1      H22A          -29.9485073560       23.4249131501       -6.4450905816  MEMB      180             0.0000000000
     20835       180  CHL1      H22B          -28.5147682551       24.4234912125       -6.0651875198  MEMB      180             0.0000000000
     20836       180  CHL1      C23           -30.3366258971       24.9574355788       -4.9840591437  MEMB      180             0.0000000000
     20837       180  CHL1      H23A          -30.2104886293       26.0579561460       -4.8955035056  MEMB      180             0.0000000000
     20838       180  CHL1      H23B          -31.4247536325       24.7558563782       -5.1018767281  MEMB      180             0.0000000000
     20839       180  CHL1      C24           -29.8349758038       24.2927211167       -3.6907136946  MEMB      180             0.0000000000
     20840       180  CHL1      H24A          -29.8896595128       23.1897536934       -3.8139990633  MEMB      180             0.0000000000
     20841       180  CHL1      H24B          -28.7671228194       24.5632346288       -3.5341673245  MEMB      180             0.0000000000
     20842       180  CHL1      C25           -30.6384019489       24.6775412327       -2.4266477562  MEMB      180             0.0000000000
     20843       180  CHL1      H25           -31.6965713717       24.3587951791       -2.5866256540  MEMB      180             0.0000000000
     20844       180  CHL1      C26           -30.1055067454       23.9357994802       -1.1900609078  MEMB      180             0.0000000000
     20845       180  CHL1      H26A          -30.1627347486       22.8429920006       -1.3395570869  MEMB      180             0.0000000000
     20846       180  CHL1      H26B          -29.0407834874       24.1828923659       -1.0069067364  MEMB      180             0.0000000000
     20847       180  CHL1      H26C          -30.6927618836       24.2004755364       -0.2855273719  MEMB      180             0.0000000000
     20848       180  CHL1      C27           -30.6363953837       26.1936271837       -2.1749057499  MEMB      180             0.0000000000
     20849       180  CHL1      H27A          -31.1912715884       26.7215390189       -2.9792747372  MEMB      180             0.0000000000
     20850       180  CHL1      H27B          -31.1250835908       26.4293961620       -1.2060596121  MEMB      180             0.0000000000
     20851       180  CHL1      H27C          -29.5948359993       26.5792546341       -2.1519403334  MEMB      180             0.0000000000
     20852       181  SAPE      N             -25.9222248870      -30.8812833539      -19.3158489337  MEMB      181             0.0000000000
     20853       181  SAPE      HN1           -26.8761490852      -30.6584386134      -18.9831102325  MEMB      181             0.0000000000
     20854       181  SAPE      HN2           -25.9896057977      -30.9986275256      -20.3658776070  MEMB      181             0.0000000000
     20855       181  SAPE      HN3           -25.5167898976      -31.7443101960      -18.9135368197  MEMB      181             0.0000000000
     20856       181  SAPE      C12           -25.0262261372      -29.7046197526      -19.0904850627  MEMB      181             0.0000000000
     20857       181  SAPE      H12A          -23.9854332413      -30.0132007978      -19.3253624486  MEMB      181             0.0000000000
     20858       181  SAPE      H12B          -25.1113608379      -29.4283483697      -18.0198888667  MEMB      181             0.0000000000
     20859       181  SAPE      C11           -25.4934573265      -28.5403677614      -19.9729278040  MEMB      181             0.0000000000
     20860       181  SAPE      H11A          -25.2540048534      -28.7736801434      -21.0426735224  MEMB      181             0.0000000000
     20861       181  SAPE      H11B          -24.9321209120      -27.6186336388      -19.6982280370  MEMB      181             0.0000000000
     20862       181  SAPE      P             -27.8075736731      -27.7807288992      -20.9216691972  MEMB      181             0.0000000000
     20863       181  SAPE      O13           -27.0680369788      -26.8019388560      -21.7586371932  MEMB      181             0.0000000000
     20864       181  SAPE      O14           -28.3440760295      -29.0032084881      -21.5523065133  MEMB      181             0.0000000000
     20865       181  SAPE      O12           -26.8867055440      -28.3293373456      -19.7613351680  MEMB      181             0.0000000000
     20866       181  SAPE      O11           -28.9091741466      -27.0308722001      -20.1008944590  MEMB      181             0.0000000000
     20867       181  SAPE      C1            -29.5518409979      -27.4372657397      -18.8910540272  MEMB      181             0.0000000000
     20868       181  SAPE      HA            -30.6325758097      -27.1762010340      -18.9820550866  MEMB      181             0.0000000000
     20869       181  SAPE      HB            -29.4919460104      -28.5351029539      -18.7291787137  MEMB      181             0.0000000000
     20870       181  SAPE      C2            -29.0056447860      -26.6925820825      -17.6305094731  MEMB      181             0.0000000000
     20871       181  SAPE      HS            -29.0735692921      -25.5985563082      -17.8518066536  MEMB      181             0.0000000000
     20872       181  SAPE      O21           -27.6368665229      -27.0893013425      -17.4198378463  MEMB      181             0.0000000000
     20873       181  SAPE      C21           -27.0256418592      -26.5053421297      -16.4226507680  MEMB      181             0.0000000000
     20874       181  SAPE      O22           -27.2952133370      -25.4280954580      -15.9220608791  MEMB      181             0.0000000000
     20875       181  SAPE      C22           -25.8847633193      -27.4111483668      -15.9682703048  MEMB      181             0.0000000000
     20876       181  SAPE      H2R           -26.1480613489      -28.4652764306      -16.1827276469  MEMB      181             0.0000000000
     20877       181  SAPE      H2S           -25.0036225401      -27.1076408642      -16.5712833032  MEMB      181             0.0000000000
     20878       181  SAPE      C3            -29.8536161199      -26.9626437023      -16.3339838223  MEMB      181             0.0000000000
     20879       181  SAPE      HX            -30.9282978479      -26.9060461492      -16.6045681466  MEMB      181             0.0000000000
     20880       181  SAPE      HY            -29.6829787590      -26.1134216494      -15.6330208924  MEMB      181             0.0000000000
     20881       181  SAPE      O31           -29.4789892774      -28.1970554366      -15.6592822227  MEMB      181             0.0000000000
     20882       181  SAPE      C31           -30.3588563499      -29.1893954117      -15.6712203499  MEMB      181             0.0000000000
     20883       181  SAPE      O32           -31.4443491802      -29.1935782310      -16.2129414499  MEMB      181             0.0000000000
     20884       181  SAPE      C32           -29.8058157020      -30.4327360472      -14.9592617856  MEMB      181             0.0000000000
     20885       181  SAPE      H2X           -28.7002083538      -30.4315413290      -15.0083275233  MEMB      181             0.0000000000
     20886       181  SAPE      H2Y           -30.1805486720      -31.2790695043      -15.5782896843  MEMB      181             0.0000000000
     20887       181  SAPE      C23           -25.5487988872      -27.2238483721      -14.4706903030  MEMB      181             0.0000000000
     20888       181  SAPE      H3R           -25.6077696376      -26.1488268725      -14.2025042647  MEMB      181             0.0000000000
     20889       181  SAPE      H3S           -24.4879201826      -27.5281747013      -14.3129428121  MEMB      181             0.0000000000
     20890       181  SAPE      C24           -26.4114070363      -28.0191817300      -13.4805679303  MEMB      181             0.0000000000
     20891       181  SAPE      H4R           -25.7234142211      -28.6679956853      -12.8893044162  MEMB      181             0.0000000000
     20892       181  SAPE      H4S           -27.0739096820      -28.7132458203      -14.0449929569  MEMB      181             0.0000000000
     20893       181  SAPE      C25           -27.2282544517      -27.1628866603      -12.5347185175  MEMB      181             0.0000000000
     20894       181  SAPE      H5R           -28.3048843451      -27.1379440430      -12.7624470122  MEMB      181             0.0000000000
     20895       181  SAPE      C26           -26.7877659512      -26.4519358792      -11.4721812740  MEMB      181             0.0000000000
     20896       181  SAPE      H6R           -27.5449642178      -25.9333737428      -10.8683804129  MEMB      181             0.0000000000
     20897       181  SAPE      C27           -25.3735383832      -26.3035620294      -10.9395906951  MEMB      181             0.0000000000
     20898       181  SAPE      H7R           -25.1025181916      -25.2263358075      -10.9818479543  MEMB      181             0.0000000000
     20899       181  SAPE      H7S           -24.6646749630      -26.7857941701      -11.6495505981  MEMB      181             0.0000000000
     20900       181  SAPE      C28           -25.0168372564      -26.7617981323       -9.5403559227  MEMB      181             0.0000000000
     20901       181  SAPE      H8R           -24.0375895367      -27.2605924010       -9.4931563912  MEMB      181             0.0000000000
     20902       181  SAPE      C29           -25.6941588655      -26.6193251833       -8.3805727759  MEMB      181             0.0000000000
     20903       181  SAPE      H9R           -25.2276855143      -27.0298431316       -7.4693537831  MEMB      181             0.0000000000
     20904       181  SAPE      C210          -27.0313958151      -25.9427648657       -8.1760356559  MEMB      181             0.0000000000
     20905       181  SAPE      H10R          -27.8114173896      -26.4570223078       -8.7800396171  MEMB      181             0.0000000000
     20906       181  SAPE      H10S          -26.9726784287      -24.9000499391       -8.5536384519  MEMB      181             0.0000000000
     20907       181  SAPE      C211          -27.4550871767      -25.8995111848       -6.7297332717  MEMB      181             0.0000000000
     20908       181  SAPE      H11R          -26.6620340265      -26.0914795242       -5.9885879089  MEMB      181             0.0000000000
     20909       181  SAPE      C212          -28.7038629012      -25.7269835542       -6.2646689781  MEMB      181             0.0000000000
     20910       181  SAPE      H12R          -28.8566986570      -25.8359492458       -5.1760408114  MEMB      181             0.0000000000
     20911       181  SAPE      C213          -29.9765239873      -25.5422227785       -7.0611287207  MEMB      181             0.0000000000
     20912       181  SAPE      H13R          -30.0093946534      -26.2891486146       -7.8873304389  MEMB      181             0.0000000000
     20913       181  SAPE      H13S          -29.9669241052      -24.5445784507       -7.5513026192  MEMB      181             0.0000000000
     20914       181  SAPE      C214          -31.2416099627      -25.6927507899       -6.2401200608  MEMB      181             0.0000000000
     20915       181  SAPE      H14R          -31.8984317572      -24.8081514790       -6.1981367790  MEMB      181             0.0000000000
     20916       181  SAPE      C215          -31.5942164841      -26.8136034665       -5.5771529334  MEMB      181             0.0000000000
     20917       181  SAPE      H15R          -32.5441299823      -26.8465927511       -5.0156625532  MEMB      181             0.0000000000
     20918       181  SAPE      C216          -30.7594499097      -28.0762779531       -5.5683273467  MEMB      181             0.0000000000
     20919       181  SAPE      H16R          -29.7014947353      -27.8991890084       -5.8379393573  MEMB      181             0.0000000000
     20920       181  SAPE      H16S          -31.0755625139      -28.7366516915       -6.4016247020  MEMB      181             0.0000000000
     20921       181  SAPE      C217          -30.6752751730      -28.8419368047       -4.2300176684  MEMB      181             0.0000000000
     20922       181  SAPE      H17R          -29.6923635913      -29.3614530629       -4.2153460014  MEMB      181             0.0000000000
     20923       181  SAPE      H17S          -31.4539545966      -29.6321378724       -4.1871070846  MEMB      181             0.0000000000
     20924       181  SAPE      C218          -30.7891328789      -28.0104334316       -2.9439455256  MEMB      181             0.0000000000
     20925       181  SAPE      H18R          -31.7689414461      -27.4772236517       -2.9427625157  MEMB      181             0.0000000000
     20926       181  SAPE      H18S          -29.9823878075      -27.2513728426       -2.8943146684  MEMB      181             0.0000000000
     20927       181  SAPE      C219          -30.7597422103      -28.9030029538       -1.6942484499  MEMB      181             0.0000000000
     20928       181  SAPE      H19R          -31.5661564516      -29.6480541196       -1.8384314815  MEMB      181             0.0000000000
     20929       181  SAPE      H19S          -31.0204396830      -28.2922841797       -0.8016924191  MEMB      181             0.0000000000
     20930       181  SAPE      C220          -29.4686359299      -29.6826112186       -1.4312889072  MEMB      181             0.0000000000
     20931       181  SAPE      H20R          -29.4388538796      -30.6072021555       -2.0451094929  MEMB      181             0.0000000000
     20932       181  SAPE      H20S          -29.4188160442      -29.9891838506       -0.3633275281  MEMB      181             0.0000000000
     20933       181  SAPE      H20T          -28.5777883091      -29.0684980054       -1.6732369646  MEMB      181             0.0000000000
     20934       181  SAPE      C33           -30.2932390198      -30.6427385582      -13.4932485828  MEMB      181             0.0000000000
     20935       181  SAPE      H3X           -30.1320487947      -31.6996492682      -13.1988962910  MEMB      181             0.0000000000
     20936       181  SAPE      H3Y           -31.3830839542      -30.4719765349      -13.3950345485  MEMB      181             0.0000000000
     20937       181  SAPE      C34           -29.4620674323      -29.8399716210      -12.4858876135  MEMB      181             0.0000000000
     20938       181  SAPE      H4X           -29.6740256103      -28.7612685422      -12.6401465179  MEMB      181             0.0000000000
     20939       181  SAPE      H4Y           -28.3906474317      -30.0255572182      -12.7236352234  MEMB      181             0.0000000000
     20940       181  SAPE      C35           -29.6765834620      -30.1975763264      -11.0035912950  MEMB      181             0.0000000000
     20941       181  SAPE      H5X           -29.4888784044      -31.2777964346      -10.8244194881  MEMB      181             0.0000000000
     20942       181  SAPE      H5Y           -30.7363577257      -30.0053538088      -10.7401757603  MEMB      181             0.0000000000
     20943       181  SAPE      C36           -28.7817690785      -29.3738408361      -10.0587552649  MEMB      181             0.0000000000
     20944       181  SAPE      H6X           -29.0533714700      -29.5814111021       -9.0015551406  MEMB      181             0.0000000000
     20945       181  SAPE      H6Y           -29.0032176043      -28.2945277019      -10.2326719287  MEMB      181             0.0000000000
     20946       181  SAPE      C37           -27.2627737292      -29.5750330801      -10.2516221741  MEMB      181             0.0000000000
     20947       181  SAPE      H7X           -26.7349215774      -28.8455771667       -9.6069061054  MEMB      181             0.0000000000
     20948       181  SAPE      H7Y           -26.9904944021      -29.3371917052      -11.2902685738  MEMB      181             0.0000000000
     20949       181  SAPE      C38           -26.6920208826      -30.9736134434      -10.0097026492  MEMB      181             0.0000000000
     20950       181  SAPE      H8X           -25.6406461608      -31.0128461530      -10.3732675312  MEMB      181             0.0000000000
     20951       181  SAPE      H8Y           -27.2800247386      -31.7111839356      -10.6007923075  MEMB      181             0.0000000000
     20952       181  SAPE      C39           -26.7145391109      -31.3516604103       -8.5369335999  MEMB      181             0.0000000000
     20953       181  SAPE      H9X           -26.5542218694      -32.4438821764       -8.4402488035  MEMB      181             0.0000000000
     20954       181  SAPE      H9Y           -27.7223239618      -31.1038734822       -8.1603268314  MEMB      181             0.0000000000
     20955       181  SAPE      C310          -25.7601144692      -30.5856792379       -7.6230783041  MEMB      181             0.0000000000
     20956       181  SAPE      H10X          -25.8034542996      -29.5009359164       -7.8630351410  MEMB      181             0.0000000000
     20957       181  SAPE      H10Y          -24.7133178470      -30.9257198394       -7.7656625663  MEMB      181             0.0000000000
     20958       181  SAPE      C311          -26.2005611515      -30.7480573775       -6.1668567036  MEMB      181             0.0000000000
     20959       181  SAPE      H11X          -26.1445415971      -31.8103971317       -5.8480211275  MEMB      181             0.0000000000
     20960       181  SAPE      H11Y          -27.2651875849      -30.4347498930       -6.0821347016  MEMB      181             0.0000000000
     20961       181  SAPE      C312          -25.4070711393      -29.8619866707       -5.2223491486  MEMB      181             0.0000000000
     20962       181  SAPE      H12X          -25.6044338795      -28.8117736493       -5.5345491535  MEMB      181             0.0000000000
     20963       181  SAPE      H12Y          -24.3177251602      -30.0579513066       -5.3284503448  MEMB      181             0.0000000000
     20964       181  SAPE      C313          -25.8488194560      -30.0679712002       -3.7739808637  MEMB      181             0.0000000000
     20965       181  SAPE      H13X          -25.6658475883      -31.1262703610       -3.4781278411  MEMB      181             0.0000000000
     20966       181  SAPE      H13Y          -26.9472528029      -29.8898495019       -3.7065604783  MEMB      181             0.0000000000
     20967       181  SAPE      C314          -25.1359611401      -29.1393171582       -2.7924404293  MEMB      181             0.0000000000
     20968       181  SAPE      H14X          -24.0678279387      -29.4322283341       -2.6901857949  MEMB      181             0.0000000000
     20969       181  SAPE      H14Y          -25.6105605855      -29.2849808147       -1.7938640402  MEMB      181             0.0000000000
     20970       181  SAPE      C315          -25.2353691717      -27.6509205303       -3.1610681615  MEMB      181             0.0000000000
     20971       181  SAPE      H15X          -25.2962428656      -27.1262086885       -2.1862553328  MEMB      181             0.0000000000
     20972       181  SAPE      H15Y          -26.1872967240      -27.4314695781       -3.6915061601  MEMB      181             0.0000000000
     20973       181  SAPE      C316          -24.0316276158      -27.1183664501       -3.9658432269  MEMB      181             0.0000000000
     20974       181  SAPE      H16X          -24.1618526206      -27.3428990518       -5.0474860362  MEMB      181             0.0000000000
     20975       181  SAPE      H16Y          -23.1071869483      -27.6437001453       -3.6353192243  MEMB      181             0.0000000000
     20976       181  SAPE      C317          -23.8005303910      -25.6105402050       -3.8046177843  MEMB      181             0.0000000000
     20977       181  SAPE      H17X          -24.6669999116      -25.0646965298       -4.2405121841  MEMB      181             0.0000000000
     20978       181  SAPE      H17Y          -22.9043503374      -25.3224357112       -4.4016736075  MEMB      181             0.0000000000
     20979       181  SAPE      C318          -23.5812431898      -25.1561440084       -2.3579058507  MEMB      181             0.0000000000
     20980       181  SAPE      H18X          -23.5609267289      -24.0519486395       -2.3138209523  MEMB      181             0.0000000000
     20981       181  SAPE      H18Y          -22.6324253531      -25.5528079777       -1.9534156703  MEMB      181             0.0000000000
     20982       181  SAPE      H18Z          -24.3925451475      -25.4711363931       -1.6766560506  MEMB      181             0.0000000000
     20983       182  SAPE      N              17.7147446173      -36.5319796781      -20.2588015499  MEMB      182             0.0000000000
     20984       182  SAPE      HN1            17.0139706327      -35.7796581734      -20.3836960692  MEMB      182             0.0000000000
     20985       182  SAPE      HN2            18.2356922473      -36.7013508242      -21.1546554630  MEMB      182             0.0000000000
     20986       182  SAPE      HN3            17.2224364920      -37.4210837074      -20.0405294064  MEMB      182             0.0000000000
     20987       182  SAPE      C12            18.7520751061      -36.2020790133      -19.2052060791  MEMB      182             0.0000000000
     20988       182  SAPE      H12A           19.4774563846      -37.0430617290      -19.1892416972  MEMB      182             0.0000000000
     20989       182  SAPE      H12B           18.2137341823      -36.1682950439      -18.2342935693  MEMB      182             0.0000000000
     20990       182  SAPE      C11            19.5348645626      -34.8727961704      -19.4264419411  MEMB      182             0.0000000000
     20991       182  SAPE      H11A           20.1514977284      -34.7331717258      -18.5057738041  MEMB      182             0.0000000000
     20992       182  SAPE      H11B           18.8271108332      -34.0150788801      -19.4935925862  MEMB      182             0.0000000000
     20993       182  SAPE      P              21.4700843227      -33.7255903847      -20.8042595296  MEMB      182             0.0000000000
     20994       182  SAPE      O13            22.2674134172      -33.9897754714      -22.0277944841  MEMB      182             0.0000000000
     20995       182  SAPE      O14            20.7213737493      -32.4548994736      -20.8020524417  MEMB      182             0.0000000000
     20996       182  SAPE      O12            20.3872549687      -34.9043051388      -20.5777872330  MEMB      182             0.0000000000
     20997       182  SAPE      O11            22.4713190030      -33.8392263244      -19.5098547262  MEMB      182             0.0000000000
     20998       182  SAPE      C1             23.8048147333      -34.4582442099      -19.6308413420  MEMB      182             0.0000000000
     20999       182  SAPE      HA             23.6958370155      -35.3965450472      -20.2308533249  MEMB      182             0.0000000000
     21000       182  SAPE      HB             24.5003967011      -33.7895679279      -20.1809335521  MEMB      182             0.0000000000
     21001       182  SAPE      C2             24.6103894377      -34.9955555355      -18.3243744798  MEMB      182             0.0000000000
     21002       182  SAPE      HS             25.1180681848      -35.9390816607      -18.6069275568  MEMB      182             0.0000000000
     21003       182  SAPE      O21            23.6940703384      -35.2805291068      -17.2854425909  MEMB      182             0.0000000000
     21004       182  SAPE      C21            22.5702960305      -35.9250088559      -17.4664716617  MEMB      182             0.0000000000
     21005       182  SAPE      O22            22.2297840372      -36.6486033383      -18.3899247206  MEMB      182             0.0000000000
     21006       182  SAPE      C22            21.7235804760      -35.6183166022      -16.2365402726  MEMB      182             0.0000000000
     21007       182  SAPE      H2R            21.4114112413      -34.5580079974      -16.3063924523  MEMB      182             0.0000000000
     21008       182  SAPE      H2S            20.8200681143      -36.2471744711      -16.2413680664  MEMB      182             0.0000000000
     21009       182  SAPE      C3             25.7959270195      -34.0450946519      -17.7023770770  MEMB      182             0.0000000000
     21010       182  SAPE      HX             25.3715807623      -33.0525896468      -17.4775770032  MEMB      182             0.0000000000
     21011       182  SAPE      HY             26.4853668853      -33.9287858129      -18.5632553507  MEMB      182             0.0000000000
     21012       182  SAPE      O31            26.6662640604      -34.5102059665      -16.5938511180  MEMB      182             0.0000000000
     21013       182  SAPE      C31            27.2658260600      -33.5789104907      -15.7639504211  MEMB      182             0.0000000000
     21014       182  SAPE      O32            26.8277034022      -32.4599745753      -15.6082447536  MEMB      182             0.0000000000
     21015       182  SAPE      C32            28.6729841155      -34.0016892250      -15.1643250851  MEMB      182             0.0000000000
     21016       182  SAPE      H2X            29.0965026243      -32.9719803796      -15.0824025979  MEMB      182             0.0000000000
     21017       182  SAPE      H2Y            29.2958329704      -34.4121164304      -15.9738253808  MEMB      182             0.0000000000
     21018       182  SAPE      C23            22.5500549436      -35.8156477405      -14.9398596915  MEMB      182             0.0000000000
     21019       182  SAPE      H3R            23.2832927525      -34.9834549579      -14.8901842806  MEMB      182             0.0000000000
     21020       182  SAPE      H3S            23.1518173197      -36.7368880232      -15.0164143397  MEMB      182             0.0000000000
     21021       182  SAPE      C24            21.7591114999      -35.8451860731      -13.6258181003  MEMB      182             0.0000000000
     21022       182  SAPE      H4R            22.4457837272      -35.5966583008      -12.7843515340  MEMB      182             0.0000000000
     21023       182  SAPE      H4S            21.3546092894      -36.8384051217      -13.3963824508  MEMB      182             0.0000000000
     21024       182  SAPE      C25            20.6543208427      -34.8722429180      -13.7966588493  MEMB      182             0.0000000000
     21025       182  SAPE      H5R            19.7354386222      -35.2319102603      -14.2839565041  MEMB      182             0.0000000000
     21026       182  SAPE      C26            20.7650207995      -33.6109700034      -13.4269252874  MEMB      182             0.0000000000
     21027       182  SAPE      H6R            20.0094515045      -32.9393391658      -13.8215872484  MEMB      182             0.0000000000
     21028       182  SAPE      C27            21.9422555952      -32.9410099586      -12.7905358670  MEMB      182             0.0000000000
     21029       182  SAPE      H7R            22.1546217721      -32.0443106769      -13.4046938326  MEMB      182             0.0000000000
     21030       182  SAPE      H7S            22.8273569257      -33.5657913897      -12.8746652184  MEMB      182             0.0000000000
     21031       182  SAPE      C28            21.7492311901      -32.4870073343      -11.3742817177  MEMB      182             0.0000000000
     21032       182  SAPE      H8R            21.0290075921      -31.6732908215      -11.2944261482  MEMB      182             0.0000000000
     21033       182  SAPE      C29            22.2961308813      -32.7916809361      -10.2002401436  MEMB      182             0.0000000000
     21034       182  SAPE      H9R            21.8738259667      -32.1914477277       -9.3799822291  MEMB      182             0.0000000000
     21035       182  SAPE      C210           23.3746584608      -33.7437040724       -9.7633935634  MEMB      182             0.0000000000
     21036       182  SAPE      H10R           24.2655705212      -33.6262191667      -10.3955864399  MEMB      182             0.0000000000
     21037       182  SAPE      H10S           23.0924564132      -34.8148139795       -9.8724307083  MEMB      182             0.0000000000
     21038       182  SAPE      C211           23.6770868646      -33.3271162854       -8.3371848448  MEMB      182             0.0000000000
     21039       182  SAPE      H11R           24.6907406374      -32.9293931198       -8.1842669577  MEMB      182             0.0000000000
     21040       182  SAPE      C212           22.8508325529      -33.4224522710       -7.2619718832  MEMB      182             0.0000000000
     21041       182  SAPE      H12R           23.2413368225      -33.0371830938       -6.3104941280  MEMB      182             0.0000000000
     21042       182  SAPE      C213           21.4293375957      -33.9730477220       -7.1891951739  MEMB      182             0.0000000000
     21043       182  SAPE      H13R           20.7428724323      -33.1407601597       -7.4439914955  MEMB      182             0.0000000000
     21044       182  SAPE      H13S           21.2293769803      -34.1965660212       -6.1191765277  MEMB      182             0.0000000000
     21045       182  SAPE      C214           21.0388438846      -35.2218499050       -7.9743547513  MEMB      182             0.0000000000
     21046       182  SAPE      H14R           21.8447948450      -35.6558220827       -8.5819814780  MEMB      182             0.0000000000
     21047       182  SAPE      C215           19.8667642097      -35.8940938856       -7.9958185702  MEMB      182             0.0000000000
     21048       182  SAPE      H15R           19.8075568662      -36.8030317411       -8.6115972248  MEMB      182             0.0000000000
     21049       182  SAPE      C216           18.5874831813      -35.6181504185       -7.2503675287  MEMB      182             0.0000000000
     21050       182  SAPE      H16R           17.7667233565      -36.2455547153       -7.6696692093  MEMB      182             0.0000000000
     21051       182  SAPE      H16S           18.2723939554      -34.5589389962       -7.3839126676  MEMB      182             0.0000000000
     21052       182  SAPE      C217           18.7013099856      -35.9238298979       -5.7460233094  MEMB      182             0.0000000000
     21053       182  SAPE      H17R           17.7066537855      -35.7398539501       -5.2777243950  MEMB      182             0.0000000000
     21054       182  SAPE      H17S           19.4286348352      -35.2091709205       -5.3027007653  MEMB      182             0.0000000000
     21055       182  SAPE      C218           19.1798111584      -37.3428940971       -5.3835467697  MEMB      182             0.0000000000
     21056       182  SAPE      H18R           20.0747896966      -37.6105786711       -5.9905081880  MEMB      182             0.0000000000
     21057       182  SAPE      H18S           18.3818029133      -38.0808533316       -5.6210904145  MEMB      182             0.0000000000
     21058       182  SAPE      C219           19.5875051850      -37.4648503475       -3.9030501662  MEMB      182             0.0000000000
     21059       182  SAPE      H19R           20.5505196707      -36.9181586545       -3.7659810308  MEMB      182             0.0000000000
     21060       182  SAPE      H19S           19.7835828189      -38.5368468129       -3.6725967091  MEMB      182             0.0000000000
     21061       182  SAPE      C220           18.5637473856      -36.8983609049       -2.9117078804  MEMB      182             0.0000000000
     21062       182  SAPE      H20R           17.6078221586      -37.4611782655       -2.9757297586  MEMB      182             0.0000000000
     21063       182  SAPE      H20S           18.3590137594      -35.8281769936       -3.1299330666  MEMB      182             0.0000000000
     21064       182  SAPE      H20T           18.9472485936      -36.9576809783       -1.8707785084  MEMB      182             0.0000000000
     21065       182  SAPE      C33            29.1157625278      -34.4548784466      -13.6677798859  MEMB      182             0.0000000000
     21066       182  SAPE      H3X            29.0432120454      -33.5468608085      -13.0592862306  MEMB      182             0.0000000000
     21067       182  SAPE      H3Y            30.2162096603      -34.5230481447      -13.8144942167  MEMB      182             0.0000000000
     21068       182  SAPE      C34            28.9070059283      -35.7959341514      -12.8099369135  MEMB      182             0.0000000000
     21069       182  SAPE      H4X            29.8613000996      -36.3271686357      -12.8659787004  MEMB      182             0.0000000000
     21070       182  SAPE      H4Y            28.2390244719      -36.5418597018      -13.1941294520  MEMB      182             0.0000000000
     21071       182  SAPE      C35            28.5880117027      -35.7286831217      -11.2853276654  MEMB      182             0.0000000000
     21072       182  SAPE      H5X            27.6800424019      -35.1348911540      -11.2790765097  MEMB      182             0.0000000000
     21073       182  SAPE      H5Y            29.3394855987      -35.1082431108      -10.7633305953  MEMB      182             0.0000000000
     21074       182  SAPE      C36            28.1128371759      -36.9398335857      -10.3772945506  MEMB      182             0.0000000000
     21075       182  SAPE      H6X            28.9076211851      -37.6239132579      -10.0398064633  MEMB      182             0.0000000000
     21076       182  SAPE      H6Y            27.3882317339      -37.5112368882      -10.9815648789  MEMB      182             0.0000000000
     21077       182  SAPE      C37            27.4627155039      -36.2416227052       -9.1453722907  MEMB      182             0.0000000000
     21078       182  SAPE      H7X            26.6290579087      -35.7107470134       -9.6284889640  MEMB      182             0.0000000000
     21079       182  SAPE      H7Y            28.2837867201      -35.5652561858       -8.8046785323  MEMB      182             0.0000000000
     21080       182  SAPE      C38            26.7876588462      -36.6679881293       -7.8077849183  MEMB      182             0.0000000000
     21081       182  SAPE      H8X            26.7119202624      -35.6586492151       -7.3710958595  MEMB      182             0.0000000000
     21082       182  SAPE      H8Y            27.4230436986      -37.2122058690       -7.0898359898  MEMB      182             0.0000000000
     21083       182  SAPE      C39            25.2832364688      -37.0368253318       -7.7664399289  MEMB      182             0.0000000000
     21084       182  SAPE      H9X            25.2100964207      -37.9980309178       -7.2524732515  MEMB      182             0.0000000000
     21085       182  SAPE      H9Y            24.8958389498      -37.1316699458       -8.8022186611  MEMB      182             0.0000000000
     21086       182  SAPE      C310           24.2219665341      -36.3162578227       -6.8894743673  MEMB      182             0.0000000000
     21087       182  SAPE      H10X           23.4062879976      -37.0584555425       -6.7215575533  MEMB      182             0.0000000000
     21088       182  SAPE      H10Y           23.7551126114      -35.6060640713       -7.5589286741  MEMB      182             0.0000000000
     21089       182  SAPE      C311           24.5691560243      -35.6921738663       -5.5153241354  MEMB      182             0.0000000000
     21090       182  SAPE      H11X           24.8503398055      -34.6248198347       -5.6475149945  MEMB      182             0.0000000000
     21091       182  SAPE      H11Y           25.4364420880      -36.2034259210       -5.0708700844  MEMB      182             0.0000000000
     21092       182  SAPE      C312           23.4056790790      -35.6905132551       -4.4947206486  MEMB      182             0.0000000000
     21093       182  SAPE      H12X           23.3840984740      -36.5927301858       -3.8630715884  MEMB      182             0.0000000000
     21094       182  SAPE      H12Y           22.4433013232      -35.7463907876       -5.0525342363  MEMB      182             0.0000000000
     21095       182  SAPE      C313           23.3325291668      -34.4117510735       -3.6276380852  MEMB      182             0.0000000000
     21096       182  SAPE      H13X           22.3964343654      -34.4918921243       -3.0303211468  MEMB      182             0.0000000000
     21097       182  SAPE      H13Y           23.2210355703      -33.5776693156       -4.3480671437  MEMB      182             0.0000000000
     21098       182  SAPE      C314           24.4778518562      -34.0397390458       -2.6608513760  MEMB      182             0.0000000000
     21099       182  SAPE      H14X           24.7589050678      -32.9741418211       -2.7191294418  MEMB      182             0.0000000000
     21100       182  SAPE      H14Y           25.4187722113      -34.5123277083       -3.0056215923  MEMB      182             0.0000000000
     21101       182  SAPE      C315           24.1315060913      -34.4141543168       -1.1944510227  MEMB      182             0.0000000000
     21102       182  SAPE      H15X           25.0297504236      -34.3605444562       -0.5454577471  MEMB      182             0.0000000000
     21103       182  SAPE      H15Y           23.8219065992      -35.4753697095       -1.2775750290  MEMB      182             0.0000000000
     21104       182  SAPE      C316           22.8932945169      -33.8262043222       -0.4756104983  MEMB      182             0.0000000000
     21105       182  SAPE      H16X           22.5116635515      -34.6432683255        0.1816689720  MEMB      182             0.0000000000
     21106       182  SAPE      H16Y           22.0708357246      -33.6020913419       -1.1781783258  MEMB      182             0.0000000000
     21107       182  SAPE      C317           23.1466849825      -32.6093346279        0.4230149131  MEMB      182             0.0000000000
     21108       182  SAPE      H17X           22.1597105799      -32.2278092309        0.7781588663  MEMB      182             0.0000000000
     21109       182  SAPE      H17Y           23.6266685492      -31.7816477063       -0.1354921259  MEMB      182             0.0000000000
     21110       182  SAPE      C318           24.0155657314      -32.9516754083        1.6196093988  MEMB      182             0.0000000000
     21111       182  SAPE      H18X           23.6521647903      -33.8866247949        2.0633135075  MEMB      182             0.0000000000
     21112       182  SAPE      H18Y           23.9699749903      -32.1418737696        2.3710876043  MEMB      182             0.0000000000
     21113       182  SAPE      H18Z           25.0698986697      -33.1329300119        1.3390421354  MEMB      182             0.0000000000
     21114       183  CHL1      C3             32.7545975056      -21.8985930055      -17.7053052347  MEMB      183             0.0000000000
     21115       183  CHL1      H3             31.7627114851      -21.4380337899      -17.4728047265  MEMB      183             0.0000000000
     21116       183  CHL1      O3             32.9367349585      -21.9863596316      -19.1084221636  MEMB      183             0.0000000000
     21117       183  CHL1      H3'            32.4159028263      -22.7747291672      -19.3355238025  MEMB      183             0.0000000000
     21118       183  CHL1      C4             33.8767077226      -21.0343215441      -17.1706028397  MEMB      183             0.0000000000
     21119       183  CHL1      H4A            34.8351769778      -21.5470167638      -17.3976013056  MEMB      183             0.0000000000
     21120       183  CHL1      H4B            33.8704985476      -20.0721720078      -17.7310920108  MEMB      183             0.0000000000
     21121       183  CHL1      C5             33.7386408032      -20.8281142579      -15.6905123083  MEMB      183             0.0000000000
     21122       183  CHL1      C6             33.5223977826      -19.6130851527      -15.1798290896  MEMB      183             0.0000000000
     21123       183  CHL1      H6             33.4954807285      -18.7351517023      -15.8450905681  MEMB      183             0.0000000000
     21124       183  CHL1      C7             33.3991700661      -19.3621779025      -13.7162799241  MEMB      183             0.0000000000
     21125       183  CHL1      H7A            33.9693277234      -18.4599353736      -13.4188471500  MEMB      183             0.0000000000
     21126       183  CHL1      H7B            32.3304199116      -19.1848882365      -13.4755782446  MEMB      183             0.0000000000
     21127       183  CHL1      C8             33.8642023251      -20.5540318550      -12.8589527578  MEMB      183             0.0000000000
     21128       183  CHL1      H8             34.9769037917      -20.5605751917      -12.8427411381  MEMB      183             0.0000000000
     21129       183  CHL1      C14            33.3101479176      -20.3509836086      -11.4730036752  MEMB      183             0.0000000000
     21130       183  CHL1      H14            32.1925294397      -20.3216881413      -11.5674429968  MEMB      183             0.0000000000
     21131       183  CHL1      C15            33.6942298432      -19.0470418104      -10.7888222497  MEMB      183             0.0000000000
     21132       183  CHL1      H15A           34.7903701993      -18.8966104056      -10.8989079818  MEMB      183             0.0000000000
     21133       183  CHL1      H15B           33.1844588407      -18.1691650074      -11.2155236353  MEMB      183             0.0000000000
     21134       183  CHL1      C16            33.3231051953      -19.3244580291       -9.3370516950  MEMB      183             0.0000000000
     21135       183  CHL1      H16A           34.1862098802      -19.0172923875       -8.7243023466  MEMB      183             0.0000000000
     21136       183  CHL1      H16B           32.4212438845      -18.7766203262       -9.0046703872  MEMB      183             0.0000000000
     21137       183  CHL1      C17            33.0770286872      -20.8572009205       -9.1897596172  MEMB      183             0.0000000000
     21138       183  CHL1      H17            31.9717578784      -21.0093501257       -9.2183537988  MEMB      183             0.0000000000
     21139       183  CHL1      C13            33.6195633449      -21.4606956242      -10.4908298489  MEMB      183             0.0000000000
     21140       183  CHL1      C18            35.1531082089      -21.5952500219      -10.3524006945  MEMB      183             0.0000000000
     21141       183  CHL1      H18A           35.6541152862      -21.8647409364      -11.3016553660  MEMB      183             0.0000000000
     21142       183  CHL1      H18B           35.6262880864      -20.6674813262       -9.9795801361  MEMB      183             0.0000000000
     21143       183  CHL1      H18C           35.3653184808      -22.3795280058       -9.6193628497  MEMB      183             0.0000000000
     21144       183  CHL1      C12            32.9132300783      -22.7065879827      -11.0540105615  MEMB      183             0.0000000000
     21145       183  CHL1      H12A           32.8981606189      -23.5548827025      -10.3592014666  MEMB      183             0.0000000000
     21146       183  CHL1      H12B           31.8417117528      -22.4549181821      -11.2263424905  MEMB      183             0.0000000000
     21147       183  CHL1      C11            33.5298899296      -23.0541748723      -12.4217809176  MEMB      183             0.0000000000
     21148       183  CHL1      H11A           34.5975506846      -23.3198680917      -12.3029701614  MEMB      183             0.0000000000
     21149       183  CHL1      H11B           33.0547096957      -23.9541545254      -12.8251359954  MEMB      183             0.0000000000
     21150       183  CHL1      C9             33.3391403714      -21.8722117159      -13.4154382305  MEMB      183             0.0000000000
     21151       183  CHL1      H9             32.2291225996      -21.7285079837      -13.4642724640  MEMB      183             0.0000000000
     21152       183  CHL1      C10            33.7916571391      -22.1193275826      -14.8713549003  MEMB      183             0.0000000000
     21153       183  CHL1      C19            35.2514475202      -22.6258023990      -14.8698299118  MEMB      183             0.0000000000
     21154       183  CHL1      H19A           35.3716375280      -23.5562879932      -14.2840479043  MEMB      183             0.0000000000
     21155       183  CHL1      H19B           35.5849769813      -22.8506837762      -15.9017681262  MEMB      183             0.0000000000
     21156       183  CHL1      H19C           35.9263476841      -21.8562864050      -14.4464353678  MEMB      183             0.0000000000
     21157       183  CHL1      C1             32.8580707418      -23.1713601028      -15.5237580511  MEMB      183             0.0000000000
     21158       183  CHL1      H1A            33.1705837082      -24.1575863789      -15.1235066180  MEMB      183             0.0000000000
     21159       183  CHL1      H1B            31.8142591966      -22.9472047548      -15.2085549921  MEMB      183             0.0000000000
     21160       183  CHL1      C2             32.8414743140      -23.2851604046      -17.0587826877  MEMB      183             0.0000000000
     21161       183  CHL1      H2A            31.9791308553      -23.9180284864      -17.3653646863  MEMB      183             0.0000000000
     21162       183  CHL1      H2B            33.7745626130      -23.7930131446      -17.3785254654  MEMB      183             0.0000000000
     21163       183  CHL1      C20            33.5803485191      -21.3617434986       -7.8274395876  MEMB      183             0.0000000000
     21164       183  CHL1      H20            34.6949863829      -21.3536090507       -7.7997293687  MEMB      183             0.0000000000
     21165       183  CHL1      C21            33.0901859283      -22.7992191210       -7.5795321853  MEMB      183             0.0000000000
     21166       183  CHL1      H21A           33.5712438484      -23.4994034566       -8.2888792916  MEMB      183             0.0000000000
     21167       183  CHL1      H21B           31.9904426872      -22.8638887901       -7.7054976581  MEMB      183             0.0000000000
     21168       183  CHL1      H21C           33.3514251779      -23.1280444400       -6.5521074074  MEMB      183             0.0000000000
     21169       183  CHL1      C22            33.0914068566      -20.3894284493       -6.7264909663  MEMB      183             0.0000000000
     21170       183  CHL1      H22A           33.5726758729      -19.3950405312       -6.8618856577  MEMB      183             0.0000000000
     21171       183  CHL1      H22B           31.9961536870      -20.2443963571       -6.8430015916  MEMB      183             0.0000000000
     21172       183  CHL1      C23            33.3702526041      -20.7195307498       -5.2604933910  MEMB      183             0.0000000000
     21173       183  CHL1      H23A           32.7282821810      -21.5642745971       -4.9312681457  MEMB      183             0.0000000000
     21174       183  CHL1      H23B           34.4352575508      -21.0203470915       -5.1331756255  MEMB      183             0.0000000000
     21175       183  CHL1      C24            33.0480374141      -19.4405954900       -4.4611160212  MEMB      183             0.0000000000
     21176       183  CHL1      H24A           33.9038028499      -18.7348818090       -4.5558653997  MEMB      183             0.0000000000
     21177       183  CHL1      H24B           32.1783212749      -18.9380784727       -4.9342346052  MEMB      183             0.0000000000
     21178       183  CHL1      C25            32.7582806971      -19.6221236178       -2.9639059042  MEMB      183             0.0000000000
     21179       183  CHL1      H25            32.0446901652      -20.4578761013       -2.8196500542  MEMB      183             0.0000000000
     21180       183  CHL1      C26            34.0736229064      -19.9818301974       -2.2848247074  MEMB      183             0.0000000000
     21181       183  CHL1      H26A           33.9607881268      -20.1785478626       -1.1992177755  MEMB      183             0.0000000000
     21182       183  CHL1      H26B           34.4346141378      -20.8929278171       -2.7949380564  MEMB      183             0.0000000000
     21183       183  CHL1      H26C           34.8327632841      -19.1927905935       -2.4442022253  MEMB      183             0.0000000000
     21184       183  CHL1      C27            32.1175271509      -18.3574313282       -2.3856362537  MEMB      183             0.0000000000
     21185       183  CHL1      H27A           32.3817800090      -18.1373213855       -1.3322216121  MEMB      183             0.0000000000
     21186       183  CHL1      H27B           32.4350306115      -17.5310914720       -2.9803174871  MEMB      183             0.0000000000
     21187       183  CHL1      H27C           31.0341242251      -18.2826706960       -2.5191770526  MEMB      183             0.0000000000
     21188       184  SAPE      N              31.3302630122      -29.6870828607      -21.7526102369  MEMB      184             0.0000000000
     21189       184  SAPE      HN1            31.4892226169      -29.1276208855      -22.6100326864  MEMB      184             0.0000000000
     21190       184  SAPE      HN2            31.4627202886      -29.0250848130      -20.9425191856  MEMB      184             0.0000000000
     21191       184  SAPE      HN3            31.9489421127      -30.5101179383      -21.6514262351  MEMB      184             0.0000000000
     21192       184  SAPE      C12            29.8943599609      -29.9673653641      -21.4606008564  MEMB      184             0.0000000000
     21193       184  SAPE      H12A           29.5660757355      -30.8479496644      -22.0271528427  MEMB      184             0.0000000000
     21194       184  SAPE      H12B           29.3229312887      -29.0787417625      -21.7951002369  MEMB      184             0.0000000000
     21195       184  SAPE      C11            29.7533734296      -30.0872381354      -19.9320737507  MEMB      184             0.0000000000
     21196       184  SAPE      H11A           30.0849199041      -31.0971787483      -19.5970834176  MEMB      184             0.0000000000
     21197       184  SAPE      H11B           28.6741320517      -30.0210811679      -19.6530739000  MEMB      184             0.0000000000
     21198       184  SAPE      P              30.2033534670      -27.5450544933      -19.4436360350  MEMB      184             0.0000000000
     21199       184  SAPE      O13            30.7650842339      -26.7521540019      -18.3404180039  MEMB      184             0.0000000000
     21200       184  SAPE      O14            30.7141829688      -27.2417272097      -20.7941206956  MEMB      184             0.0000000000
     21201       184  SAPE      O12            30.5467766269      -29.0956552908      -19.2560086545  MEMB      184             0.0000000000
     21202       184  SAPE      O11            28.6536325678      -27.6564611451      -19.4954674372  MEMB      184             0.0000000000
     21203       184  SAPE      C1             27.7083938624      -26.6071705811      -19.5344732779  MEMB      184             0.0000000000
     21204       184  SAPE      HA             28.1612868391      -25.6537356349      -19.8835074895  MEMB      184             0.0000000000
     21205       184  SAPE      HB             26.9083450885      -26.8766651620      -20.2540172916  MEMB      184             0.0000000000
     21206       184  SAPE      C2             27.0552980239      -26.3707596397      -18.1541894671  MEMB      184             0.0000000000
     21207       184  SAPE      HS             26.1731175266      -25.7136999513      -18.3152787830  MEMB      184             0.0000000000
     21208       184  SAPE      O21            28.0918845702      -25.6724465765      -17.4269843869  MEMB      184             0.0000000000
     21209       184  SAPE      C21            28.2511090705      -25.7548015069      -16.1326102504  MEMB      184             0.0000000000
     21210       184  SAPE      O22            27.4615752089      -26.1845628068      -15.3122431041  MEMB      184             0.0000000000
     21211       184  SAPE      C22            29.6036312744      -25.1580109919      -15.6918992439  MEMB      184             0.0000000000
     21212       184  SAPE      H2R            30.1415368295      -24.7973152406      -16.5903286154  MEMB      184             0.0000000000
     21213       184  SAPE      H2S            29.3520576319      -24.2876602276      -15.0484478226  MEMB      184             0.0000000000
     21214       184  SAPE      C3             26.5593325677      -27.7182647554      -17.4968226909  MEMB      184             0.0000000000
     21215       184  SAPE      HX             26.0599722541      -28.3196623319      -18.2884025869  MEMB      184             0.0000000000
     21216       184  SAPE      HY             25.7716309644      -27.4755496692      -16.7509862703  MEMB      184             0.0000000000
     21217       184  SAPE      O31            27.6069825880      -28.4342155419      -16.8267596098  MEMB      184             0.0000000000
     21218       184  SAPE      C31            27.7544990123      -29.7180147118      -16.9960102683  MEMB      184             0.0000000000
     21219       184  SAPE      O32            27.1343063039      -30.4373579786      -17.7628745754  MEMB      184             0.0000000000
     21220       184  SAPE      C32            28.9084486241      -30.2077283784      -16.0837285315  MEMB      184             0.0000000000
     21221       184  SAPE      H2X            29.8553251124      -30.1645969255      -16.6633402126  MEMB      184             0.0000000000
     21222       184  SAPE      H2Y            28.7223451571      -31.2543635202      -15.8515865416  MEMB      184             0.0000000000
     21223       184  SAPE      C23            30.4359197820      -26.1935872237      -14.8686217350  MEMB      184             0.0000000000
     21224       184  SAPE      H3R            30.9228351639      -26.9121924699      -15.5738700983  MEMB      184             0.0000000000
     21225       184  SAPE      H3S            29.7277032917      -26.7420261742      -14.2095143510  MEMB      184             0.0000000000
     21226       184  SAPE      C24            31.4838131352      -25.6269587678      -13.8868548072  MEMB      184             0.0000000000
     21227       184  SAPE      H4R            31.4194594812      -24.5360122571      -14.0347395518  MEMB      184             0.0000000000
     21228       184  SAPE      H4S            32.4990163344      -25.9639051661      -14.1958398000  MEMB      184             0.0000000000
     21229       184  SAPE      C25            31.3333827060      -25.8112713911      -12.3987285641  MEMB      184             0.0000000000
     21230       184  SAPE      H5R            31.0992534432      -24.8739767646      -11.8701878181  MEMB      184             0.0000000000
     21231       184  SAPE      C26            31.4063332307      -26.9237189477      -11.6560270509  MEMB      184             0.0000000000
     21232       184  SAPE      H6R            31.2024235256      -26.8208319638      -10.5817040799  MEMB      184             0.0000000000
     21233       184  SAPE      C27            31.6581516151      -28.3364761137      -12.1042572419  MEMB      184             0.0000000000
     21234       184  SAPE      H7R            31.4824796611      -28.4427664658      -13.1953960457  MEMB      184             0.0000000000
     21235       184  SAPE      H7S            30.8913105201      -28.9359010717      -11.5991092173  MEMB      184             0.0000000000
     21236       184  SAPE      C28            32.9404773442      -29.0209832801      -11.7394512553  MEMB      184             0.0000000000
     21237       184  SAPE      H8R            33.6491350675      -29.1107650467      -12.5713277714  MEMB      184             0.0000000000
     21238       184  SAPE      C29            33.2650132166      -29.5185906926      -10.5273655266  MEMB      184             0.0000000000
     21239       184  SAPE      H9R            34.2378871121      -30.0231660432      -10.3890291410  MEMB      184             0.0000000000
     21240       184  SAPE      C210           32.3902699508      -29.4771986553       -9.2967003773  MEMB      184             0.0000000000
     21241       184  SAPE      H10R           32.3516990027      -30.4667207828       -8.7948375973  MEMB      184             0.0000000000
     21242       184  SAPE      H10S           31.3339048665      -29.2351088058       -9.5453687058  MEMB      184             0.0000000000
     21243       184  SAPE      C211           33.0159974391      -28.4791464433       -8.3670963195  MEMB      184             0.0000000000
     21244       184  SAPE      H11R           34.0904344439      -28.6417579493       -8.1832064622  MEMB      184             0.0000000000
     21245       184  SAPE      C212           32.3956243944      -27.4693093762       -7.7387479588  MEMB      184             0.0000000000
     21246       184  SAPE      H12R           33.0119248301      -26.7953649848       -7.1237748156  MEMB      184             0.0000000000
     21247       184  SAPE      C213           30.9277834739      -27.1327832681       -7.8373892092  MEMB      184             0.0000000000
     21248       184  SAPE      H13R           30.4023972719      -27.7621853712       -7.0901197229  MEMB      184             0.0000000000
     21249       184  SAPE      H13S           30.4941382401      -27.4517273258       -8.8072031723  MEMB      184             0.0000000000
     21250       184  SAPE      C214           30.6449274361      -25.6603593767       -7.6412625353  MEMB      184             0.0000000000
     21251       184  SAPE      H14R           31.2594934743      -24.9853833279       -8.2615133500  MEMB      184             0.0000000000
     21252       184  SAPE      C215           29.6817041725      -25.1390811760       -6.8536609885  MEMB      184             0.0000000000
     21253       184  SAPE      H15R           29.5619812868      -24.0446721192       -6.7988115511  MEMB      184             0.0000000000
     21254       184  SAPE      C216           28.7087183232      -25.9427792808       -6.0242781643  MEMB      184             0.0000000000
     21255       184  SAPE      H16R           29.1046378483      -26.9644334608       -5.8219917191  MEMB      184             0.0000000000
     21256       184  SAPE      H16S           27.7472044176      -26.0354023202       -6.5749773116  MEMB      184             0.0000000000
     21257       184  SAPE      C217           28.3873070004      -25.4178000697       -4.6209456851  MEMB      184             0.0000000000
     21258       184  SAPE      H17R           28.0508895297      -24.3627574800       -4.6901455574  MEMB      184             0.0000000000
     21259       184  SAPE      H17S           29.3451040711      -25.4776744008       -4.0603865153  MEMB      184             0.0000000000
     21260       184  SAPE      C218           27.3533996252      -26.2703069947       -3.8566897240  MEMB      184             0.0000000000
     21261       184  SAPE      H18R           27.6662565041      -27.3298155129       -3.9620691643  MEMB      184             0.0000000000
     21262       184  SAPE      H18S           26.3558975369      -26.1780590317       -4.3391491283  MEMB      184             0.0000000000
     21263       184  SAPE      C219           27.2130365812      -25.9746521437       -2.3487329165  MEMB      184             0.0000000000
     21264       184  SAPE      H19R           26.6622923889      -25.0202458030       -2.1886814187  MEMB      184             0.0000000000
     21265       184  SAPE      H19S           28.2200174239      -25.8532230444       -1.8871185768  MEMB      184             0.0000000000
     21266       184  SAPE      C220           26.4880334675      -27.0971557568       -1.6100118330  MEMB      184             0.0000000000
     21267       184  SAPE      H20R           26.2915924199      -26.8256203985       -0.5487945715  MEMB      184             0.0000000000
     21268       184  SAPE      H20S           27.1055195263      -28.0221101916       -1.6141423464  MEMB      184             0.0000000000
     21269       184  SAPE      H20T           25.5188821052      -27.3356841744       -2.0968123763  MEMB      184             0.0000000000
     21270       184  SAPE      C33            29.1003998295      -29.4626118007      -14.7397803767  MEMB      184             0.0000000000
     21271       184  SAPE      H3X            29.3411596828      -28.4239879475      -15.0064750646  MEMB      184             0.0000000000
     21272       184  SAPE      H3Y            29.9876122741      -29.8889586807      -14.2168590675  MEMB      184             0.0000000000
     21273       184  SAPE      C34            27.9078295841      -29.4855380953      -13.7630981288  MEMB      184             0.0000000000
     21274       184  SAPE      H4X            27.5701642001      -30.5358359595      -13.6087139636  MEMB      184             0.0000000000
     21275       184  SAPE      H4Y            27.0805625839      -28.8743991375      -14.1891760982  MEMB      184             0.0000000000
     21276       184  SAPE      C35            28.3024969745      -28.8844745074      -12.4143203254  MEMB      184             0.0000000000
     21277       184  SAPE      H5X            28.5716710432      -27.8128224134      -12.5661383291  MEMB      184             0.0000000000
     21278       184  SAPE      H5Y            29.1863387289      -29.4622129095      -12.0990187729  MEMB      184             0.0000000000
     21279       184  SAPE      C36            27.3351105585      -28.9558944260      -11.2294779484  MEMB      184             0.0000000000
     21280       184  SAPE      H6X            27.0448510285      -29.9865455340      -10.9991907303  MEMB      184             0.0000000000
     21281       184  SAPE      H6Y            26.4022598068      -28.4264443834      -11.5006590101  MEMB      184             0.0000000000
     21282       184  SAPE      C37            27.9930441079      -28.3134723338       -9.9915893520  MEMB      184             0.0000000000
     21283       184  SAPE      H7X            28.7504850632      -27.6034573983      -10.4023661611  MEMB      184             0.0000000000
     21284       184  SAPE      H7Y            28.5690249743      -29.0469915538       -9.3905133236  MEMB      184             0.0000000000
     21285       184  SAPE      C38            27.0532901207      -27.4380013591       -9.1515818111  MEMB      184             0.0000000000
     21286       184  SAPE      H8X            26.2844053152      -27.0070069238       -9.8304530054  MEMB      184             0.0000000000
     21287       184  SAPE      H8Y            27.6434927278      -26.5936884423       -8.7325150269  MEMB      184             0.0000000000
     21288       184  SAPE      C39            26.3086229947      -28.1277973285       -8.0069294600  MEMB      184             0.0000000000
     21289       184  SAPE      H9X            25.6267253206      -28.8802877981       -8.4455787671  MEMB      184             0.0000000000
     21290       184  SAPE      H9Y            25.6951357496      -27.3587675250       -7.4811441955  MEMB      184             0.0000000000
     21291       184  SAPE      C310           27.1633090007      -28.8277843142       -6.9565562317  MEMB      184             0.0000000000
     21292       184  SAPE      H10X           27.5098304135      -28.0870041526       -6.2173322371  MEMB      184             0.0000000000
     21293       184  SAPE      H10Y           28.0562244601      -29.3154131648       -7.3979807766  MEMB      184             0.0000000000
     21294       184  SAPE      C311           26.3648034758      -29.8582457819       -6.1646633705  MEMB      184             0.0000000000
     21295       184  SAPE      H11X           26.2458163127      -30.7558236433       -6.7852088104  MEMB      184             0.0000000000
     21296       184  SAPE      H11Y           25.3384640042      -29.4966303360       -5.9748035857  MEMB      184             0.0000000000
     21297       184  SAPE      C312           27.0138942579      -30.1763033941       -4.8177067841  MEMB      184             0.0000000000
     21298       184  SAPE      H12X           26.5322640470      -31.0910617451       -4.4057867548  MEMB      184             0.0000000000
     21299       184  SAPE      H12Y           26.7987195776      -29.3431781049       -4.1134625238  MEMB      184             0.0000000000
     21300       184  SAPE      C313           28.5386468917      -30.3592050980       -4.8809171935  MEMB      184             0.0000000000
     21301       184  SAPE      H13X           29.0589914037      -29.4338228882       -5.2092395412  MEMB      184             0.0000000000
     21302       184  SAPE      H13Y           28.7664910407      -31.1303807587       -5.6367802957  MEMB      184             0.0000000000
     21303       184  SAPE      C314           29.0973033759      -30.7957779050       -3.5281818952  MEMB      184             0.0000000000
     21304       184  SAPE      H14X           29.9918686911      -31.4439303564       -3.6555181961  MEMB      184             0.0000000000
     21305       184  SAPE      H14Y           28.2978113526      -31.3934678196       -3.0313465987  MEMB      184             0.0000000000
     21306       184  SAPE      C315           29.4008738007      -29.6311530575       -2.5918669685  MEMB      184             0.0000000000
     21307       184  SAPE      H15X           28.9184963567      -29.8708756689       -1.6194321833  MEMB      184             0.0000000000
     21308       184  SAPE      H15Y           28.9232642545      -28.7042491201       -2.9758003650  MEMB      184             0.0000000000
     21309       184  SAPE      C316           30.8874603872      -29.3609148017       -2.3431528027  MEMB      184             0.0000000000
     21310       184  SAPE      H16X           31.3815443766      -29.0962425976       -3.3059786516  MEMB      184             0.0000000000
     21311       184  SAPE      H16Y           31.3863764000      -30.2726271759       -1.9426278936  MEMB      184             0.0000000000
     21312       184  SAPE      C317           31.0291330002      -28.2054200707       -1.3435299003  MEMB      184             0.0000000000
     21313       184  SAPE      H17X           30.3735180306      -27.3736725195       -1.6932947063  MEMB      184             0.0000000000
     21314       184  SAPE      H17Y           32.0776444940      -27.8329732670       -1.3483100828  MEMB      184             0.0000000000
     21315       184  SAPE      C318           30.6377561420      -28.5823768229        0.0903062604  MEMB      184             0.0000000000
     21316       184  SAPE      H18X           29.6164566575      -29.0141849466        0.1436462393  MEMB      184             0.0000000000
     21317       184  SAPE      H18Y           30.6642498961      -27.6937141087        0.7543404308  MEMB      184             0.0000000000
     21318       184  SAPE      H18Z           31.3447786104      -29.3423828893        0.4814597730  MEMB      184             0.0000000000
     21319       185  OSM       N             -25.9050173708       31.6001926336      -22.2028128600  MEMB      185             0.0000000000
     21320       185  OSM       C15           -24.7381418214       30.6488110632      -22.2954901291  MEMB      185             0.0000000000
     21321       185  OSM       H15A          -23.9899441743       30.9648605136      -21.5647268031  MEMB      185             0.0000000000
     21322       185  OSM       H15B          -24.2531703835       30.7444726993      -23.2661770719  MEMB      185             0.0000000000
     21323       185  OSM       H15C          -25.0284683624       29.6234588800      -22.1173489136  MEMB      185             0.0000000000
     21324       185  OSM       C14           -26.9970858875       31.1408041973      -23.1170162078  MEMB      185             0.0000000000
     21325       185  OSM       H14A          -27.2293760972       30.1047689998      -22.8938431276  MEMB      185             0.0000000000
     21326       185  OSM       H14B          -26.6402933746       31.1763796984      -24.1399500920  MEMB      185             0.0000000000
     21327       185  OSM       H14C          -27.8873639970       31.7515929242      -23.0249301368  MEMB      185             0.0000000000
     21328       185  OSM       C13           -26.3750728099       31.6416273254      -20.7873247001  MEMB      185             0.0000000000
     21329       185  OSM       H13A          -26.5238753346       30.6427413460      -20.4003295572  MEMB      185             0.0000000000
     21330       185  OSM       H13B          -27.2529052794       32.2677631546      -20.6802289244  MEMB      185             0.0000000000
     21331       185  OSM       H13C          -25.5920816916       32.1549734135      -20.2235908426  MEMB      185             0.0000000000
     21332       185  OSM       C12           -25.4162569943       32.9681948543      -22.5928284589  MEMB      185             0.0000000000
     21333       185  OSM       H12A          -26.1412906878       33.7287988795      -22.3179248770  MEMB      185             0.0000000000
     21334       185  OSM       H12B          -25.3152816102       32.9878642516      -23.6742097727  MEMB      185             0.0000000000
     21335       185  OSM       C11           -24.0229889411       33.4205740015      -22.0808664298  MEMB      185             0.0000000000
     21336       185  OSM       H11A          -23.9636472282       34.4725016677      -22.4536864372  MEMB      185             0.0000000000
     21337       185  OSM       H11B          -23.2074759346       32.8697498362      -22.5916353928  MEMB      185             0.0000000000
     21338       185  OSM       P             -23.2059679922       34.6069593324      -19.9736381428  MEMB      185             0.0000000000
     21339       185  OSM       O13           -21.7369375874       34.6824416996      -20.1071986540  MEMB      185             0.0000000000
     21340       185  OSM       O14           -23.9827948790       35.7855555800      -20.4021664115  MEMB      185             0.0000000000
     21341       185  OSM       O11           -23.5262351454       34.2661280453      -18.4631414369  MEMB      185             0.0000000000
     21342       185  OSM       O12           -23.8335580906       33.3082933757      -20.6681498887  MEMB      185             0.0000000000
     21343       185  OSM       C1S           -24.8171433163       33.6782477039      -18.2214901878  MEMB      185             0.0000000000
     21344       185  OSM       H1S           -24.7956041285       32.6273037654      -18.5678593319  MEMB      185             0.0000000000
     21345       185  OSM       H1T           -25.6267946646       34.1890594860      -18.7957587725  MEMB      185             0.0000000000
     21346       185  OSM       NF            -24.7238223852       34.9992812108      -16.0979344802  MEMB      185             0.0000000000
     21347       185  OSM       HNF           -24.5092338854       34.9879711979      -15.1330311977  MEMB      185             0.0000000000
     21348       185  OSM       C2S           -25.2701862106       33.7773165130      -16.7242484354  MEMB      185             0.0000000000
     21349       185  OSM       H2S           -26.3782715609       33.8287088538      -16.6821200508  MEMB      185             0.0000000000
     21350       185  OSM       C3S           -24.8223926765       32.4211658484      -16.0676114715  MEMB      185             0.0000000000
     21351       185  OSM       H3S           -23.7247262172       32.3009266222      -16.1506701336  MEMB      185             0.0000000000
     21352       185  OSM       O3            -25.4332061758       31.3267492862      -16.7804308154  MEMB      185             0.0000000000
     21353       185  OSM       HO3           -25.9136717907       31.7008985788      -17.5185189586  MEMB      185             0.0000000000
     21354       185  OSM       C4S           -25.2197459613       32.2855337887      -14.6019496430  MEMB      185             0.0000000000
     21355       185  OSM       H4S           -24.8231499216       33.0816350048      -13.9596099074  MEMB      185             0.0000000000
     21356       185  OSM       C5S           -25.9456256806       31.2730049031      -14.0480611619  MEMB      185             0.0000000000
     21357       185  OSM       H5S           -26.2983584066       30.4621984522      -14.7077038806  MEMB      185             0.0000000000
     21358       185  OSM       C6S           -26.3604166945       31.0774709185      -12.6187596215  MEMB      185             0.0000000000
     21359       185  OSM       H6S           -25.8689612517       30.1698645031      -12.1979126025  MEMB      185             0.0000000000
     21360       185  OSM       H6T           -27.4538523283       30.8761981718      -12.5891687335  MEMB      185             0.0000000000
     21361       185  OSM       C7S           -26.0346736588       32.2693168690      -11.7141506513  MEMB      185             0.0000000000
     21362       185  OSM       H7S           -26.3663399221       33.2121750407      -12.2107301129  MEMB      185             0.0000000000
     21363       185  OSM       H7T           -24.9356474608       32.3367855456      -11.5544940899  MEMB      185             0.0000000000
     21364       185  OSM       C8S           -26.7581421034       32.1791816887      -10.3685802977  MEMB      185             0.0000000000
     21365       185  OSM       H8S           -26.3418997284       31.3600910297       -9.7478359604  MEMB      185             0.0000000000
     21366       185  OSM       H8T           -27.8247182617       31.9293643395      -10.5724983672  MEMB      185             0.0000000000
     21367       185  OSM       C9S           -26.7350028388       33.5219085730       -9.6311007388  MEMB      185             0.0000000000
     21368       185  OSM       H9S           -27.5044379836       33.5236510495       -8.8297741639  MEMB      185             0.0000000000
     21369       185  OSM       H9T           -27.0080707577       34.2966376651      -10.3750192716  MEMB      185             0.0000000000
     21370       185  OSM       C10S          -25.3822137099       33.9131911781       -9.0348192438  MEMB      185             0.0000000000
     21371       185  OSM       H10S          -25.3963013436       35.0060005766       -8.8093440574  MEMB      185             0.0000000000
     21372       185  OSM       H10T          -24.5786563691       33.7358227921       -9.7819840182  MEMB      185             0.0000000000
     21373       185  OSM       C11S          -25.0905681883       33.1566860173       -7.7386436801  MEMB      185             0.0000000000
     21374       185  OSM       H11S          -25.3481308106       32.0816859288       -7.8652012644  MEMB      185             0.0000000000
     21375       185  OSM       H11T          -25.7412385956       33.5635851550       -6.9317302472  MEMB      185             0.0000000000
     21376       185  OSM       C12S          -23.6221659903       33.2611762786       -7.3199161929  MEMB      185             0.0000000000
     21377       185  OSM       H12S          -23.3546117732       34.3349986419       -7.1988666362  MEMB      185             0.0000000000
     21378       185  OSM       H12T          -22.9851197926       32.8327071620       -8.1261501019  MEMB      185             0.0000000000
     21379       185  OSM       C13S          -23.3534430645       32.5217186690       -6.0074643984  MEMB      185             0.0000000000
     21380       185  OSM       H13S          -23.7306128410       31.4785709339       -6.0969082423  MEMB      185             0.0000000000
     21381       185  OSM       H13T          -23.9346082226       33.0224693082       -5.2012861291  MEMB      185             0.0000000000
     21382       185  OSM       C14S          -21.8746357796       32.4892164982       -5.5955132011  MEMB      185             0.0000000000
     21383       185  OSM       H14S          -21.4146500450       33.4655803058       -5.8265996990  MEMB      185             0.0000000000
     21384       185  OSM       H14T          -21.3395524174       31.7154053427       -6.1893167268  MEMB      185             0.0000000000
     21385       185  OSM       C15S          -21.6884955824       32.2235443892       -4.0977106726  MEMB      185             0.0000000000
     21386       185  OSM       H15S          -22.1303504137       33.0623251128       -3.5137825990  MEMB      185             0.0000000000
     21387       185  OSM       H15T          -20.6023783590       32.1833872035       -3.8534003855  MEMB      185             0.0000000000
     21388       185  OSM       C16S          -22.3449099758       30.9046338739       -3.6934427906  MEMB      185             0.0000000000
     21389       185  OSM       H16S          -21.7732313045       30.0938283103       -4.1912382850  MEMB      185             0.0000000000
     21390       185  OSM       H16T          -23.4006174920       30.8479321232       -4.0409987642  MEMB      185             0.0000000000
     21391       185  OSM       C17S          -22.3483111716       30.6450550842       -2.1951565593  MEMB      185             0.0000000000
     21392       185  OSM       H17S          -21.4725810031       31.1391423161       -1.7273166211  MEMB      185             0.0000000000
     21393       185  OSM       H17T          -22.2312902864       29.5486708878       -2.0403426980  MEMB      185             0.0000000000
     21394       185  OSM       C18S          -23.6378776132       31.0983102082       -1.5185097178  MEMB      185             0.0000000000
     21395       185  OSM       H18S          -23.6952963755       30.6961005572       -0.4913525336  MEMB      185             0.0000000000
     21396       185  OSM       H18T          -24.5281033337       30.7296805599       -2.0709684338  MEMB      185             0.0000000000
     21397       185  OSM       H18U          -23.6770766052       32.2061879928       -1.4652660431  MEMB      185             0.0000000000
     21398       185  OSM       C1F           -24.8265191512       36.1827847275      -16.7468565133  MEMB      185             0.0000000000
     21399       185  OSM       OF            -25.5662821677       36.3152733894      -17.7196371108  MEMB      185             0.0000000000
     21400       185  OSM       C2F           -24.0366086266       37.3736140693      -16.2713459886  MEMB      185             0.0000000000
     21401       185  OSM       H2F           -23.4348715299       37.7108552013      -17.1476522965  MEMB      185             0.0000000000
     21402       185  OSM       H2G           -23.3313962190       37.1104895200      -15.4631260264  MEMB      185             0.0000000000
     21403       185  OSM       C3F           -24.9394949751       38.5773393506      -15.8831404268  MEMB      185             0.0000000000
     21404       185  OSM       H3F           -25.6932720732       38.7479033479      -16.6829488020  MEMB      185             0.0000000000
     21405       185  OSM       H3G           -24.2997189606       39.4868182191      -15.8443944680  MEMB      185             0.0000000000
     21406       185  OSM       C4F           -25.6549634002       38.4638079747      -14.5290121805  MEMB      185             0.0000000000
     21407       185  OSM       H4F           -26.2518265211       37.5316413477      -14.4632694792  MEMB      185             0.0000000000
     21408       185  OSM       H4G           -26.3718513281       39.3116392034      -14.4271220238  MEMB      185             0.0000000000
     21409       185  OSM       C5F           -24.6976266406       38.4774016839      -13.3382487921  MEMB      185             0.0000000000
     21410       185  OSM       H5F           -24.1848462028       39.4531453001      -13.2963108137  MEMB      185             0.0000000000
     21411       185  OSM       H5G           -23.9212243530       37.6942654709      -13.4549661870  MEMB      185             0.0000000000
     21412       185  OSM       C6F           -25.4626242782       38.2606197931      -12.0400243003  MEMB      185             0.0000000000
     21413       185  OSM       H6F           -26.1303781738       37.3808123264      -12.1907808656  MEMB      185             0.0000000000
     21414       185  OSM       H6G           -26.0900315146       39.1643186222      -11.8523559461  MEMB      185             0.0000000000
     21415       185  OSM       C7F           -24.5854731634       37.9942241982      -10.8136190447  MEMB      185             0.0000000000
     21416       185  OSM       H7F           -23.7270613651       37.3497029345      -11.1032909921  MEMB      185             0.0000000000
     21417       185  OSM       H7G           -25.1956697883       37.4346824329      -10.0654621393  MEMB      185             0.0000000000
     21418       185  OSM       C8F           -24.1132574834       39.3009606228      -10.1641615034  MEMB      185             0.0000000000
     21419       185  OSM       H8F           -25.0086557394       39.8940906832       -9.8715111909  MEMB      185             0.0000000000
     21420       185  OSM       H8G           -23.5873077363       39.9075251119      -10.9351125665  MEMB      185             0.0000000000
     21421       185  OSM       C9F           -23.2126485888       39.0680269123       -8.9799947568  MEMB      185             0.0000000000
     21422       185  OSM       H9F           -22.1742322955       38.8291653574       -9.2183102313  MEMB      185             0.0000000000
     21423       185  OSM       C10F          -23.5689125559       38.9632327187       -7.6989497128  MEMB      185             0.0000000000
     21424       185  OSM       H10F          -22.7867525624       38.8068548689       -6.9403639322  MEMB      185             0.0000000000
     21425       185  OSM       C11F          -24.9654739978       39.0471210282       -7.1667677336  MEMB      185             0.0000000000
     21426       185  OSM       H11F          -25.6816428099       38.5819528870       -7.8780036364  MEMB      185             0.0000000000
     21427       185  OSM       H11G          -25.2578476633       40.1065432181       -7.0334070879  MEMB      185             0.0000000000
     21428       185  OSM       C12F          -25.0481246888       38.3324239481       -5.8082805043  MEMB      185             0.0000000000
     21429       185  OSM       H12F          -26.0932038522       38.4018308264       -5.4324222910  MEMB      185             0.0000000000
     21430       185  OSM       H12G          -24.4080294588       38.8828408160       -5.0815702509  MEMB      185             0.0000000000
     21431       185  OSM       C13F          -24.6270282149       36.8500273880       -5.8490645866  MEMB      185             0.0000000000
     21432       185  OSM       H13F          -23.7386563896       36.7094179658       -6.5034302694  MEMB      185             0.0000000000
     21433       185  OSM       H13G          -25.4453137774       36.2471052343       -6.2988864040  MEMB      185             0.0000000000
     21434       185  OSM       C14F          -24.2242145085       36.2825752290       -4.4770903048  MEMB      185             0.0000000000
     21435       185  OSM       H14F          -23.2880916901       36.7908528097       -4.1488536013  MEMB      185             0.0000000000
     21436       185  OSM       H14G          -23.9810441374       35.2032100018       -4.5952037062  MEMB      185             0.0000000000
     21437       185  OSM       C15F          -25.2771144695       36.4569538637       -3.3750619071  MEMB      185             0.0000000000
     21438       185  OSM       H15F          -25.4522131730       37.5453642297       -3.2200570176  MEMB      185             0.0000000000
     21439       185  OSM       H15G          -24.8724022184       36.0527869557       -2.4201724251  MEMB      185             0.0000000000
     21440       185  OSM       C16F          -26.6265403306       35.7900746205       -3.6862643039  MEMB      185             0.0000000000
     21441       185  OSM       H16F          -27.0342000557       36.2053822097       -4.6330349454  MEMB      185             0.0000000000
     21442       185  OSM       H16G          -27.3398149863       36.0774356407       -2.8829852337  MEMB      185             0.0000000000
     21443       185  OSM       C17F          -26.5905245699       34.2550768796       -3.7908235851  MEMB      185             0.0000000000
     21444       185  OSM       H17F          -25.9468885714       33.9441820406       -4.6397649599  MEMB      185             0.0000000000
     21445       185  OSM       H17G          -27.6167260536       33.9016735453       -4.0331162565  MEMB      185             0.0000000000
     21446       185  OSM       C18F          -26.1180323390       33.5490826584       -2.5203290776  MEMB      185             0.0000000000
     21447       185  OSM       H18F          -26.4296104897       32.4803757731       -2.5174475744  MEMB      185             0.0000000000
     21448       185  OSM       H18G          -26.5627196039       34.0467268763       -1.6323929975  MEMB      185             0.0000000000
     21449       185  OSM       H18H          -25.0105023896       33.5992186966       -2.4413390770  MEMB      185             0.0000000000
     21450       186  SAPS      N              37.4729117218       26.2328237641      -19.5887176401  MEMB      186             0.0000000000
     21451       186  SAPS      HN1            38.1240081350       26.6652667218      -18.9099553786  MEMB      186             0.0000000000
     21452       186  SAPS      HN2            37.7626155765       25.2702775324      -19.8969985979  MEMB      186             0.0000000000
     21453       186  SAPS      HN3            37.4182164155       26.8361807191      -20.4267324415  MEMB      186             0.0000000000
     21454       186  SAPS      C12            36.1132718819       26.2314500940      -19.0029009491  MEMB      186             0.0000000000
     21455       186  SAPS      H12A           36.1220992152       25.6289832339      -18.1039350545  MEMB      186             0.0000000000
     21456       186  SAPS      C13            35.7290230388       27.6891739756      -18.6327619535  MEMB      186             0.0000000000
     21457       186  SAPS      O13A           36.4186232332       28.6333030147      -19.1206622494  MEMB      186             0.0000000000
     21458       186  SAPS      O13B           35.0876050677       27.7896629134      -17.5565370783  MEMB      186             0.0000000000
     21459       186  SAPS      C11            35.1155601006       25.6090133137      -20.0391639890  MEMB      186             0.0000000000
     21460       186  SAPS      H11A           34.9748893380       26.3363262352      -20.8684266332  MEMB      186             0.0000000000
     21461       186  SAPS      H11B           34.1148615985       25.5061719753      -19.5579131689  MEMB      186             0.0000000000
     21462       186  SAPS      P              34.7957066165       23.2549443866      -21.2894971079  MEMB      186             0.0000000000
     21463       186  SAPS      O13            33.5181552022       23.8789742067      -21.7161499463  MEMB      186             0.0000000000
     21464       186  SAPS      O14            35.6945948460       22.7103372296      -22.3152836029  MEMB      186             0.0000000000
     21465       186  SAPS      O12            35.6250138958       24.3553667683      -20.5320153477  MEMB      186             0.0000000000
     21466       186  SAPS      O11            34.6189262969       22.1074075826      -20.2326029312  MEMB      186             0.0000000000
     21467       186  SAPS      C1             35.3284303113       22.0634816131      -19.0050755521  MEMB      186             0.0000000000
     21468       186  SAPS      HA             35.7802603983       21.0597964004      -18.8610124069  MEMB      186             0.0000000000
     21469       186  SAPS      HB             36.1663667081       22.7976588304      -18.9290315975  MEMB      186             0.0000000000
     21470       186  SAPS      C2             34.3129701790       22.3232030337      -17.8944527265  MEMB      186             0.0000000000
     21471       186  SAPS      HS             33.4809954668       21.5939320803      -18.0295571718  MEMB      186             0.0000000000
     21472       186  SAPS      O21            33.8635781417       23.6788401732      -18.0327905219  MEMB      186             0.0000000000
     21473       186  SAPS      C21            32.7345755825       23.9158077378      -17.4230887449  MEMB      186             0.0000000000
     21474       186  SAPS      O22            31.8396289568       23.1047306224      -17.2320723335  MEMB      186             0.0000000000
     21475       186  SAPS      C22            32.7640679399       25.3496000640      -16.8993268053  MEMB      186             0.0000000000
     21476       186  SAPS      H2R            33.7551556396       25.8126408430      -17.0735814387  MEMB      186             0.0000000000
     21477       186  SAPS      H2S            32.0082499932       25.9409030560      -17.4541643538  MEMB      186             0.0000000000
     21478       186  SAPS      C3             34.9580961345       22.1229813185      -16.5121147541  MEMB      186             0.0000000000
     21479       186  SAPS      HX             35.4054374749       21.1036207644      -16.4700646361  MEMB      186             0.0000000000
     21480       186  SAPS      HY             34.1680070587       22.1973794031      -15.7281324364  MEMB      186             0.0000000000
     21481       186  SAPS      O31            35.9508719911       23.1513265808      -16.3360507570  MEMB      186             0.0000000000
     21482       186  SAPS      C31            36.7247076878       22.9776944042      -15.2891624320  MEMB      186             0.0000000000
     21483       186  SAPS      O32            36.8862994291       21.9312421112      -14.6864732833  MEMB      186             0.0000000000
     21484       186  SAPS      C32            37.3537668010       24.3209506081      -14.9423297862  MEMB      186             0.0000000000
     21485       186  SAPS      H2X            36.5667972522       25.1016420933      -15.0146541883  MEMB      186             0.0000000000
     21486       186  SAPS      H2Y            38.1295949520       24.5289990861      -15.7044313920  MEMB      186             0.0000000000
     21487       186  SAPS      C23            32.4632104690       25.3706095330      -15.3890736260  MEMB      186             0.0000000000
     21488       186  SAPS      H3R            31.6863606377       24.6083936650      -15.1498537260  MEMB      186             0.0000000000
     21489       186  SAPS      H3S            32.0502825375       26.3809291423      -15.1525387390  MEMB      186             0.0000000000
     21490       186  SAPS      C24            33.6876955036       25.1482557471      -14.4956358347  MEMB      186             0.0000000000
     21491       186  SAPS      H4R            34.3960654047       25.9941527193      -14.6567884733  MEMB      186             0.0000000000
     21492       186  SAPS      H4S            34.2144127510       24.2226561801      -14.7955486771  MEMB      186             0.0000000000
     21493       186  SAPS      C25            33.2280687156       25.1034081205      -13.0607303014  MEMB      186             0.0000000000
     21494       186  SAPS      H5R            32.6549244579       25.9945684277      -12.7611722169  MEMB      186             0.0000000000
     21495       186  SAPS      C26            33.4631523988       24.1510160949      -12.1350129743  MEMB      186             0.0000000000
     21496       186  SAPS      H6R            33.0631429044       24.3269568982      -11.1258033878  MEMB      186             0.0000000000
     21497       186  SAPS      C27            34.2543139648       22.8631708466      -12.2780996055  MEMB      186             0.0000000000
     21498       186  SAPS      H7R            34.4481885168       22.6421882995      -13.3493534837  MEMB      186             0.0000000000
     21499       186  SAPS      H7S            33.6170683035       22.0222847044      -11.9562930680  MEMB      186             0.0000000000
     21500       186  SAPS      C28            35.5567831027       22.7300793250      -11.5212968449  MEMB      186             0.0000000000
     21501       186  SAPS      H8R            36.4156867669       22.4784067848      -12.1628241086  MEMB      186             0.0000000000
     21502       186  SAPS      C29            35.7723977651       22.8255505105      -10.1939872221  MEMB      186             0.0000000000
     21503       186  SAPS      H9R            36.8111375721       22.7823922102       -9.8254994532  MEMB      186             0.0000000000
     21504       186  SAPS      C210           34.7362234848       23.0946065933       -9.1332271432  MEMB      186             0.0000000000
     21505       186  SAPS      H10R           33.7219497787       23.1861061225       -9.5690880037  MEMB      186             0.0000000000
     21506       186  SAPS      H10S           34.9514188765       24.0783674850       -8.6809106890  MEMB      186             0.0000000000
     21507       186  SAPS      C211           34.6962567508       22.0757139061       -8.0305512315  MEMB      186             0.0000000000
     21508       186  SAPS      H11R           35.0470154152       21.0576492704       -8.2739680300  MEMB      186             0.0000000000
     21509       186  SAPS      C212           34.1863101665       22.3249038265       -6.8122406286  MEMB      186             0.0000000000
     21510       186  SAPS      H12R           34.2053987196       21.5158247912       -6.0664151411  MEMB      186             0.0000000000
     21511       186  SAPS      C213           33.5744571639       23.6307774415       -6.3360804668  MEMB      186             0.0000000000
     21512       186  SAPS      H13R           33.7800826951       24.4652735335       -7.0325511226  MEMB      186             0.0000000000
     21513       186  SAPS      H13S           34.0504617334       23.9478682407       -5.3774065043  MEMB      186             0.0000000000
     21514       186  SAPS      C214           32.0765226748       23.5590535426       -6.1919108081  MEMB      186             0.0000000000
     21515       186  SAPS      H14R           31.4992779814       24.1589052101       -6.9147217671  MEMB      186             0.0000000000
     21516       186  SAPS      C215           31.4235641160       22.8166358222       -5.2874515872  MEMB      186             0.0000000000
     21517       186  SAPS      H15R           30.3204042749       22.8313859147       -5.2628252340  MEMB      186             0.0000000000
     21518       186  SAPS      C216           32.1008173965       21.9379250263       -4.2695349210  MEMB      186             0.0000000000
     21519       186  SAPS      H16R           32.7273940201       21.1426960468       -4.7207388043  MEMB      186             0.0000000000
     21520       186  SAPS      H16S           31.2913572353       21.3893667078       -3.7382567015  MEMB      186             0.0000000000
     21521       186  SAPS      C217           32.9215916075       22.6955796892       -3.1981878954  MEMB      186             0.0000000000
     21522       186  SAPS      H17R           32.4988272138       22.2496380207       -2.2988444400  MEMB      186             0.0000000000
     21523       186  SAPS      H17S           32.6431935549       23.7630993823       -3.1288381705  MEMB      186             0.0000000000
     21524       186  SAPS      C218           34.4501090709       22.4446403637       -3.0571728030  MEMB      186             0.0000000000
     21525       186  SAPS      H18R           34.9348770595       23.3645060329       -2.6657755082  MEMB      186             0.0000000000
     21526       186  SAPS      H18S           34.9049762385       22.2406218345       -4.0484605133  MEMB      186             0.0000000000
     21527       186  SAPS      C219           34.7559375904       21.2874418731       -2.0744442540  MEMB      186             0.0000000000
     21528       186  SAPS      H19R           34.9339566021       20.3550700788       -2.6556422506  MEMB      186             0.0000000000
     21529       186  SAPS      H19S           33.8344343258       21.1236798311       -1.4877029053  MEMB      186             0.0000000000
     21530       186  SAPS      C220           35.7362501571       21.4236170201       -0.9133027355  MEMB      186             0.0000000000
     21531       186  SAPS      H20R           36.1918834715       20.4346272960       -0.6897089022  MEMB      186             0.0000000000
     21532       186  SAPS      H20S           35.1833752070       21.7005228686        0.0088017879  MEMB      186             0.0000000000
     21533       186  SAPS      H20T           36.5331580038       22.1633643148       -1.1269228830  MEMB      186             0.0000000000
     21534       186  SAPS      C33            37.9775707773       24.3439534969      -13.5322165030  MEMB      186             0.0000000000
     21535       186  SAPS      H3X            38.6097106903       23.4380424847      -13.3832844122  MEMB      186             0.0000000000
     21536       186  SAPS      H3Y            37.1773294728       24.3230474701      -12.7662812396  MEMB      186             0.0000000000
     21537       186  SAPS      C34            38.8475215541       25.5782958665      -13.2839532207  MEMB      186             0.0000000000
     21538       186  SAPS      H4X            39.5160254258       25.7388848963      -14.1583580743  MEMB      186             0.0000000000
     21539       186  SAPS      H4Y            39.4945392849       25.3848563906      -12.3968867389  MEMB      186             0.0000000000
     21540       186  SAPS      C35            38.0533292128       26.8594945722      -13.0021602842  MEMB      186             0.0000000000
     21541       186  SAPS      H5X            37.3677944267       27.1116675209      -13.8418373758  MEMB      186             0.0000000000
     21542       186  SAPS      H5Y            38.8145088908       27.6731823677      -12.9270206009  MEMB      186             0.0000000000
     21543       186  SAPS      C36            37.2991548678       26.8486797248      -11.6645971077  MEMB      186             0.0000000000
     21544       186  SAPS      H6X            37.4703566302       27.8202220044      -11.1674971761  MEMB      186             0.0000000000
     21545       186  SAPS      H6Y            37.7326911460       26.0675661119      -11.0029237535  MEMB      186             0.0000000000
     21546       186  SAPS      C37            35.7822100918       26.6509233680      -11.7520850283  MEMB      186             0.0000000000
     21547       186  SAPS      H7X            35.6271691648       25.5836743304      -12.0081131431  MEMB      186             0.0000000000
     21548       186  SAPS      H7Y            35.3449583169       27.2554250185      -12.5790533034  MEMB      186             0.0000000000
     21549       186  SAPS      C38            35.0480504675       26.9766882446      -10.4363266274  MEMB      186             0.0000000000
     21550       186  SAPS      H8X            34.0562984375       26.4688461136      -10.4397067994  MEMB      186             0.0000000000
     21551       186  SAPS      H8Y            34.8550791893       28.0711503080      -10.3952715920  MEMB      186             0.0000000000
     21552       186  SAPS      C39            35.8395674055       26.5747386069       -9.1748740610  MEMB      186             0.0000000000
     21553       186  SAPS      H9X            36.7717014472       27.1739856265       -9.1102581956  MEMB      186             0.0000000000
     21554       186  SAPS      H9Y            36.1493237948       25.5176995580       -9.2748670771  MEMB      186             0.0000000000
     21555       186  SAPS      C310           35.0430782315       26.8091802975       -7.8860479759  MEMB      186             0.0000000000
     21556       186  SAPS      H10X           34.0471486579       26.3221116944       -7.9748414642  MEMB      186             0.0000000000
     21557       186  SAPS      H10Y           34.8839722693       27.9068061117       -7.8260130439  MEMB      186             0.0000000000
     21558       186  SAPS      C311           35.7113687968       26.3878842399       -6.5627526468  MEMB      186             0.0000000000
     21559       186  SAPS      H11X           36.7017944913       26.8867350864       -6.4841857788  MEMB      186             0.0000000000
     21560       186  SAPS      H11Y           35.8753456012       25.2886825211       -6.5405297404  MEMB      186             0.0000000000
     21561       186  SAPS      C312           34.8541631915       26.8038667526       -5.3530292212  MEMB      186             0.0000000000
     21562       186  SAPS      H12X           33.8506298992       26.3234917706       -5.4123650846  MEMB      186             0.0000000000
     21563       186  SAPS      H12Y           34.7282089974       27.9110189150       -5.3864443263  MEMB      186             0.0000000000
     21564       186  SAPS      C313           35.4570213932       26.5191240476       -3.9877550116  MEMB      186             0.0000000000
     21565       186  SAPS      H13X           36.4290545355       27.0661319300       -3.9330667816  MEMB      186             0.0000000000
     21566       186  SAPS      H13Y           35.6537311147       25.4361400361       -3.8438995957  MEMB      186             0.0000000000
     21567       186  SAPS      C314           34.6112861122       27.0861051252       -2.8414199558  MEMB      186             0.0000000000
     21568       186  SAPS      H14X           34.3073609091       28.1335135484       -3.0249670208  MEMB      186             0.0000000000
     21569       186  SAPS      H14Y           35.3233010836       27.1307281420       -2.0071787920  MEMB      186             0.0000000000
     21570       186  SAPS      C315           33.3633357947       26.3141159714       -2.4127134202  MEMB      186             0.0000000000
     21571       186  SAPS      H15X           33.6018616903       25.2484023145       -2.2310453124  MEMB      186             0.0000000000
     21572       186  SAPS      H15Y           32.6025280076       26.3472308045       -3.2269768594  MEMB      186             0.0000000000
     21573       186  SAPS      C316           32.7760001819       26.9396551304       -1.1380287438  MEMB      186             0.0000000000
     21574       186  SAPS      H16X           32.8240657536       28.0278045724       -1.2189117312  MEMB      186             0.0000000000
     21575       186  SAPS      H16Y           33.3505113217       26.7436773109       -0.2237513571  MEMB      186             0.0000000000
     21576       186  SAPS      C317           31.3895347101       26.4180579117       -0.8349678749  MEMB      186             0.0000000000
     21577       186  SAPS      H17X           31.5444397334       25.3526895088       -0.5835594160  MEMB      186             0.0000000000
     21578       186  SAPS      H17Y           30.8252161514       26.4628051473       -1.7861986374  MEMB      186             0.0000000000
     21579       186  SAPS      C318           30.6886710206       27.1218307822        0.3333229681  MEMB      186             0.0000000000
     21580       186  SAPS      H18X           31.4161996153       27.3593916362        1.1333466858  MEMB      186             0.0000000000
     21581       186  SAPS      H18Y           29.8929077507       26.4831249557        0.7759573821  MEMB      186             0.0000000000
     21582       186  SAPS      H18Z           30.2384643399       28.0848316016        0.0209073341  MEMB      186             0.0000000000
     21583       187  OSM       N              28.2441571169      -33.4821882636      -22.7534686556  MEMB      187             0.0000000000
     21584       187  OSM       C15            27.5499267433      -32.2335347874      -23.1675201941  MEMB      187             0.0000000000
     21585       187  OSM       H15A           26.7741984826      -31.9644153420      -22.4586973158  MEMB      187             0.0000000000
     21586       187  OSM       H15B           27.0742535964      -32.3645432288      -24.1409088990  MEMB      187             0.0000000000
     21587       187  OSM       H15C           28.2040595589      -31.3779076552      -23.2581712625  MEMB      187             0.0000000000
     21588       187  OSM       C14            29.2323592470      -33.9094819376      -23.7968980963  MEMB      187             0.0000000000
     21589       187  OSM       H14A           28.7389594289      -34.2550480279      -24.7025484651  MEMB      187             0.0000000000
     21590       187  OSM       H14B           29.7635454694      -34.7914948827      -23.4286482404  MEMB      187             0.0000000000
     21591       187  OSM       H14C           29.9609202971      -33.1573575984      -24.0439496336  MEMB      187             0.0000000000
     21592       187  OSM       C13            28.9986322042      -33.3519648574      -21.4697084138  MEMB      187             0.0000000000
     21593       187  OSM       H13A           29.3918420502      -34.3501514927      -21.2225364886  MEMB      187             0.0000000000
     21594       187  OSM       H13B           28.3417194944      -33.1205324362      -20.6436109433  MEMB      187             0.0000000000
     21595       187  OSM       H13C           29.8377778053      -32.6913863127      -21.5426886066  MEMB      187             0.0000000000
     21596       187  OSM       C12            27.2407325899      -34.6093316831      -22.5699236335  MEMB      187             0.0000000000
     21597       187  OSM       H12A           26.7638893283      -34.8412986628      -23.5212596442  MEMB      187             0.0000000000
     21598       187  OSM       H12B           26.4714821283      -34.2764299687      -21.8803532497  MEMB      187             0.0000000000
     21599       187  OSM       C11            27.8370096651      -35.9071427723      -21.9817741736  MEMB      187             0.0000000000
     21600       187  OSM       H11A           28.7992015372      -36.1208284945      -22.4758581687  MEMB      187             0.0000000000
     21601       187  OSM       H11B           27.1748766330      -36.7598339564      -22.2195683448  MEMB      187             0.0000000000
     21602       187  OSM       P              28.6101272121      -36.9903166059      -19.7456653692  MEMB      187             0.0000000000
     21603       187  OSM       O13            27.9830370995      -38.2078633821      -20.3078148107  MEMB      187             0.0000000000
     21604       187  OSM       O14            30.0680831816      -36.9056091256      -19.6411429869  MEMB      187             0.0000000000
     21605       187  OSM       O11            27.8585865191      -36.7040903708      -18.3723558376  MEMB      187             0.0000000000
     21606       187  OSM       O12            28.0241747814      -35.7739510588      -20.5763532783  MEMB      187             0.0000000000
     21607       187  OSM       C1S            27.9413753812      -37.7003639445      -17.3365211561  MEMB      187             0.0000000000
     21608       187  OSM       H1S            28.9317855795      -38.2063430303      -17.3839859414  MEMB      187             0.0000000000
     21609       187  OSM       H1T            27.1497431780      -38.4721239488      -17.4675807427  MEMB      187             0.0000000000
     21610       187  OSM       NF             28.8413805335      -37.8910008410      -15.1045272861  MEMB      187             0.0000000000
     21611       187  OSM       HNF            28.6976238977      -38.8579256416      -14.9595986827  MEMB      187             0.0000000000
     21612       187  OSM       C2S            27.8344109629      -37.1751133167      -15.8582667602  MEMB      187             0.0000000000
     21613       187  OSM       H2S            28.1061060113      -36.1247441587      -15.8512625284  MEMB      187             0.0000000000
     21614       187  OSM       C3S            26.3747784300      -37.3976128020      -15.3041009886  MEMB      187             0.0000000000
     21615       187  OSM       H3S            26.2886567065      -38.4746279978      -15.0623974763  MEMB      187             0.0000000000
     21616       187  OSM       O3             25.3595357022      -37.0945624780      -16.2189874650  MEMB      187             0.0000000000
     21617       187  OSM       HO3            25.8164983908      -36.7216500120      -16.9773169753  MEMB      187             0.0000000000
     21618       187  OSM       C4S            26.1186934040      -36.6007560211      -14.0292810309  MEMB      187             0.0000000000
     21619       187  OSM       H4S            26.3164182446      -37.2666897347      -13.1895519786  MEMB      187             0.0000000000
     21620       187  OSM       C5S            25.6871199005      -35.3384609735      -13.7460865884  MEMB      187             0.0000000000
     21621       187  OSM       H5S            25.3682974588      -34.7077774462      -14.5908399820  MEMB      187             0.0000000000
     21622       187  OSM       C6S            25.4752474310      -34.6520253313      -12.3923881402  MEMB      187             0.0000000000
     21623       187  OSM       H6S            25.6040548965      -35.3210925484      -11.5160622021  MEMB      187             0.0000000000
     21624       187  OSM       H6T            24.4189493112      -34.3695827453      -12.3765145815  MEMB      187             0.0000000000
     21625       187  OSM       C7S            26.3009893182      -33.3274755078      -12.2020144691  MEMB      187             0.0000000000
     21626       187  OSM       H7S            26.0281039897      -32.6219912259      -13.0201274949  MEMB      187             0.0000000000
     21627       187  OSM       H7T            27.3225589767      -33.6112225668      -12.4118381306  MEMB      187             0.0000000000
     21628       187  OSM       C8S            26.5048636583      -32.5493581008      -10.8449437165  MEMB      187             0.0000000000
     21629       187  OSM       H8S            25.5942998765      -31.9770376429      -10.5865430226  MEMB      187             0.0000000000
     21630       187  OSM       H8T            27.3192024672      -31.8444182178      -11.1126297071  MEMB      187             0.0000000000
     21631       187  OSM       C9S            27.0600193095      -33.2807722036       -9.5880875635  MEMB      187             0.0000000000
     21632       187  OSM       H9S            27.9418423278      -33.8388863720       -9.9200369898  MEMB      187             0.0000000000
     21633       187  OSM       H9T            26.2334142998      -33.9320749193       -9.2452121730  MEMB      187             0.0000000000
     21634       187  OSM       C10S           27.5436468914      -32.5225071410       -8.3174908939  MEMB      187             0.0000000000
     21635       187  OSM       H10S           26.6005702400      -32.3239941840       -7.7803972967  MEMB      187             0.0000000000
     21636       187  OSM       H10T           28.0052681217      -31.5534482590       -8.5954641075  MEMB      187             0.0000000000
     21637       187  OSM       C11S           28.4380313256      -33.2711436613       -7.2587157616  MEMB      187             0.0000000000
     21638       187  OSM       H11S           29.2248522592      -32.5717231600       -6.9030606859  MEMB      187             0.0000000000
     21639       187  OSM       H11T           29.0189619526      -34.1022199136       -7.6978589657  MEMB      187             0.0000000000
     21640       187  OSM       C12S           27.6270190477      -33.7185052690       -6.0071547190  MEMB      187             0.0000000000
     21641       187  OSM       H12S           26.6609808449      -34.0892094900       -6.3822812227  MEMB      187             0.0000000000
     21642       187  OSM       H12T           27.3033755852      -32.8418967055       -5.4159274788  MEMB      187             0.0000000000
     21643       187  OSM       C13S           28.2288320307      -34.7791111681       -5.0360317207  MEMB      187             0.0000000000
     21644       187  OSM       H13S           28.7848666387      -35.5832938929       -5.5559886849  MEMB      187             0.0000000000
     21645       187  OSM       H13T           27.3600666664      -35.2628309648       -4.5266509212  MEMB      187             0.0000000000
     21646       187  OSM       C14S           29.0561228904      -34.1452734273       -3.9040290417  MEMB      187             0.0000000000
     21647       187  OSM       H14S           28.4605847171      -33.2471975433       -3.6504964606  MEMB      187             0.0000000000
     21648       187  OSM       H14T           30.0556071356      -33.8180090108       -4.2536606014  MEMB      187             0.0000000000
     21649       187  OSM       C15S           29.1603195819      -34.8874679499       -2.5591765555  MEMB      187             0.0000000000
     21650       187  OSM       H15S           30.0117962940      -35.6012234739       -2.5415593243  MEMB      187             0.0000000000
     21651       187  OSM       H15T           28.2322662648      -35.4512233182       -2.3640388118  MEMB      187             0.0000000000
     21652       187  OSM       C16S           29.2391750945      -33.8994010864       -1.3829956330  MEMB      187             0.0000000000
     21653       187  OSM       H16S           29.6043701684      -32.9155394506       -1.7473445731  MEMB      187             0.0000000000
     21654       187  OSM       H16T           29.9980928050      -34.2601596272       -0.6663886300  MEMB      187             0.0000000000
     21655       187  OSM       C17S           27.8621336254      -33.7306446392       -0.7124078457  MEMB      187             0.0000000000
     21656       187  OSM       H17S           27.6416326946      -34.6080030810       -0.0627410164  MEMB      187             0.0000000000
     21657       187  OSM       H17T           27.1114046206      -33.7366149848       -1.5360435159  MEMB      187             0.0000000000
     21658       187  OSM       C18S           27.6506497012      -32.4379966732        0.0769785664  MEMB      187             0.0000000000
     21659       187  OSM       H18S           26.5672965257      -32.2120134787        0.1431981852  MEMB      187             0.0000000000
     21660       187  OSM       H18T           28.1488887327      -31.5822192363       -0.4240351715  MEMB      187             0.0000000000
     21661       187  OSM       H18U           28.0424591845      -32.5205777555        1.1104770596  MEMB      187             0.0000000000
     21662       187  OSM       C1F            30.1102507933      -37.5142358580      -14.9127640306  MEMB      187             0.0000000000
     21663       187  OSM       OF             30.5448756092      -36.4742131166      -15.3725960652  MEMB      187             0.0000000000
     21664       187  OSM       C2F            30.8073283866      -38.4403895067      -13.9251534249  MEMB      187             0.0000000000
     21665       187  OSM       H2F            31.0441237024      -39.3442969386      -14.5098402922  MEMB      187             0.0000000000
     21666       187  OSM       H2G            30.0205247621      -38.6803845471      -13.1734701274  MEMB      187             0.0000000000
     21667       187  OSM       C3F            32.1114853430      -38.1650472436      -13.1048757577  MEMB      187             0.0000000000
     21668       187  OSM       H3F            32.9934540917      -38.2046637593      -13.7548236038  MEMB      187             0.0000000000
     21669       187  OSM       H3G            32.2031554165      -39.0421970344      -12.4331235471  MEMB      187             0.0000000000
     21670       187  OSM       C4F            32.2290780774      -36.9177439452      -12.2310206914  MEMB      187             0.0000000000
     21671       187  OSM       H4F            31.8998682060      -36.0451580091      -12.8374957529  MEMB      187             0.0000000000
     21672       187  OSM       H4G            33.2787081471      -36.7188962295      -11.9307235750  MEMB      187             0.0000000000
     21673       187  OSM       C5F            31.3675489080      -36.9925129068      -10.9788301880  MEMB      187             0.0000000000
     21674       187  OSM       H5F            30.5481008237      -37.7224137458      -11.1333735485  MEMB      187             0.0000000000
     21675       187  OSM       H5G            31.0009827014      -35.9575247845      -10.8730720895  MEMB      187             0.0000000000
     21676       187  OSM       C6F            32.0532914939      -37.1917139930       -9.6512094349  MEMB      187             0.0000000000
     21677       187  OSM       H6F            32.9438695013      -36.5407550940       -9.6857912034  MEMB      187             0.0000000000
     21678       187  OSM       H6G            32.3820741356      -38.2481919033       -9.6042178972  MEMB      187             0.0000000000
     21679       187  OSM       C7F            31.1792369510      -36.7183910340       -8.4580767858  MEMB      187             0.0000000000
     21680       187  OSM       H7F            30.1964549812      -37.2358100668       -8.4609717943  MEMB      187             0.0000000000
     21681       187  OSM       H7G            30.9647101239      -35.6335876617       -8.5690281652  MEMB      187             0.0000000000
     21682       187  OSM       C8F            31.8049772848      -36.9488579055       -7.0820324778  MEMB      187             0.0000000000
     21683       187  OSM       H8F            31.0814775290      -36.6886545091       -6.2796088862  MEMB      187             0.0000000000
     21684       187  OSM       H8G            32.6846960127      -36.2797930342       -6.9489389527  MEMB      187             0.0000000000
     21685       187  OSM       C9F            32.1764545016      -38.4052735181       -7.1485075743  MEMB      187             0.0000000000
     21686       187  OSM       H9F            33.1022223864      -38.5901262797       -7.6987977807  MEMB      187             0.0000000000
     21687       187  OSM       C10F           31.5267402401      -39.4739689639       -6.7026587276  MEMB      187             0.0000000000
     21688       187  OSM       H10F           31.9779674525      -40.4662047949       -6.8470216905  MEMB      187             0.0000000000
     21689       187  OSM       C11F           30.2214965498      -39.4506014351       -5.9874734712  MEMB      187             0.0000000000
     21690       187  OSM       H11F           29.8267238942      -40.4882391386       -5.9023836882  MEMB      187             0.0000000000
     21691       187  OSM       H11G           29.4751595363      -38.8439336170       -6.5470705903  MEMB      187             0.0000000000
     21692       187  OSM       C12F           30.4402324580      -38.8734441306       -4.5810836277  MEMB      187             0.0000000000
     21693       187  OSM       H12F           29.5852176200      -39.1881768988       -3.9413646530  MEMB      187             0.0000000000
     21694       187  OSM       H12G           30.4055428381      -37.7608463286       -4.6149185360  MEMB      187             0.0000000000
     21695       187  OSM       C13F           31.7852484299      -39.2839391471       -3.9362469903  MEMB      187             0.0000000000
     21696       187  OSM       H13F           32.5230458265      -38.4606780832       -4.0762618199  MEMB      187             0.0000000000
     21697       187  OSM       H13G           32.2120692120      -40.1915416916       -4.4188810427  MEMB      187             0.0000000000
     21698       187  OSM       C14F           31.6626148713      -39.6323949950       -2.4607243685  MEMB      187             0.0000000000
     21699       187  OSM       H14F           32.6392707301      -40.0124251813       -2.0968106636  MEMB      187             0.0000000000
     21700       187  OSM       H14G           30.9375167575      -40.4665247269       -2.3703132525  MEMB      187             0.0000000000
     21701       187  OSM       C15F           31.1679095646      -38.4548225189       -1.6297252006  MEMB      187             0.0000000000
     21702       187  OSM       H15F           30.2656081553      -38.0485185546       -2.1339543992  MEMB      187             0.0000000000
     21703       187  OSM       H15G           31.9247042318      -37.6408800399       -1.6178085998  MEMB      187             0.0000000000
     21704       187  OSM       C16F           30.7772476440      -38.8735317114       -0.2129706666  MEMB      187             0.0000000000
     21705       187  OSM       H16F           31.6668394098      -39.0963391106        0.4082802352  MEMB      187             0.0000000000
     21706       187  OSM       H16G           30.1680950181      -39.8031495542       -0.2565924179  MEMB      187             0.0000000000
     21707       187  OSM       C17F           30.0009834087      -37.7832275913        0.5082403122  MEMB      187             0.0000000000
     21708       187  OSM       H17F           30.5627649930      -36.8259764247        0.4272792022  MEMB      187             0.0000000000
     21709       187  OSM       H17G           29.9512138074      -38.0652869610        1.5773293391  MEMB      187             0.0000000000
     21710       187  OSM       C18F           28.5799654840      -37.6089667498        0.0050992536  MEMB      187             0.0000000000
     21711       187  OSM       H18F           28.5991658246      -37.4072467536       -1.0763520364  MEMB      187             0.0000000000
     21712       187  OSM       H18G           28.0768638227      -36.7577582263        0.5066368944  MEMB      187             0.0000000000
     21713       187  OSM       H18H           27.9985271668      -38.5380527211        0.1860864095  MEMB      187             0.0000000000
     21714       188  OSM       N              30.2587545881       28.8567698987      -22.2248463159  MEMB      188             0.0000000000
     21715       188  OSM       C15            29.0956824154       29.5260472823      -21.5895777832  MEMB      188             0.0000000000
     21716       188  OSM       H15A           28.5089831352       28.8104917113      -21.0249442508  MEMB      188             0.0000000000
     21717       188  OSM       H15B           28.4840779544       30.0199568694      -22.3272359897  MEMB      188             0.0000000000
     21718       188  OSM       H15C           29.4704623646       30.2750274107      -20.9029133984  MEMB      188             0.0000000000
     21719       188  OSM       C14            31.1014153792       28.1583269150      -21.1867074912  MEMB      188             0.0000000000
     21720       188  OSM       H14A           31.4553069600       28.8800013004      -20.4519653723  MEMB      188             0.0000000000
     21721       188  OSM       H14B           31.9713015129       27.7002801397      -21.6445806360  MEMB      188             0.0000000000
     21722       188  OSM       H14C           30.5370203122       27.4070385989      -20.6454189919  MEMB      188             0.0000000000
     21723       188  OSM       C13            29.6830296278       27.8519130506      -23.1409396927  MEMB      188             0.0000000000
     21724       188  OSM       H13A           29.1805418708       28.2854926050      -23.9999426371  MEMB      188             0.0000000000
     21725       188  OSM       H13B           28.9754483116       27.2101804398      -22.6219264497  MEMB      188             0.0000000000
     21726       188  OSM       H13C           30.4517921294       27.1677753162      -23.4807190455  MEMB      188             0.0000000000
     21727       188  OSM       C12            31.1588904293       29.8143125932      -22.9704276580  MEMB      188             0.0000000000
     21728       188  OSM       H12A           30.5876943724       30.2894536211      -23.7540153033  MEMB      188             0.0000000000
     21729       188  OSM       H12B           31.9820220743       29.2510166245      -23.3965063795  MEMB      188             0.0000000000
     21730       188  OSM       C11            31.7984396494       30.9562555747      -22.1769338235  MEMB      188             0.0000000000
     21731       188  OSM       H11A           32.5868608371       31.4270058789      -22.8191574174  MEMB      188             0.0000000000
     21732       188  OSM       H11B           32.3013149910       30.5927177328      -21.2471112254  MEMB      188             0.0000000000
     21733       188  OSM       P              31.1308018435       33.2262803056      -21.2145768386  MEMB      188             0.0000000000
     21734       188  OSM       O13            32.5933490059       33.4250275605      -21.2966892408  MEMB      188             0.0000000000
     21735       188  OSM       O14            30.2603221577       34.1866409233      -21.9381152417  MEMB      188             0.0000000000
     21736       188  OSM       O11            30.6767551437       32.9462250242      -19.6956213248  MEMB      188             0.0000000000
     21737       188  OSM       O12            30.7573480114       31.8732829394      -21.9029701398  MEMB      188             0.0000000000
     21738       188  OSM       C1S            30.0579065358       31.7073349599      -19.3445557019  MEMB      188             0.0000000000
     21739       188  OSM       H1S            30.6387376941       30.8504515770      -19.7582558913  MEMB      188             0.0000000000
     21740       188  OSM       H1T            29.0207152221       31.6945403586      -19.7418353547  MEMB      188             0.0000000000
     21741       188  OSM       NF             28.9240529108       30.4159414093      -17.5914068310  MEMB      188             0.0000000000
     21742       188  OSM       HNF            28.2237135521       30.6638443082      -16.9354142113  MEMB      188             0.0000000000
     21743       188  OSM       C2S            29.9726877416       31.3609829221      -17.8201326185  MEMB      188             0.0000000000
     21744       188  OSM       H2S            30.9374651658       30.8807590248      -17.5339050105  MEMB      188             0.0000000000
     21745       188  OSM       C3S            29.7515022234       32.5607503597      -16.9049485157  MEMB      188             0.0000000000
     21746       188  OSM       H3S            28.8006651107       33.0642602809      -17.1860805426  MEMB      188             0.0000000000
     21747       188  OSM       O3             30.7904443389       33.4979032939      -16.9863827543  MEMB      188             0.0000000000
     21748       188  OSM       HO3            31.2416231672       33.2834916835      -17.8153860815  MEMB      188             0.0000000000
     21749       188  OSM       C4S            29.6850809291       32.1915417876      -15.4260770752  MEMB      188             0.0000000000
     21750       188  OSM       H4S            30.5013009416       31.5554215673      -15.0473527658  MEMB      188             0.0000000000
     21751       188  OSM       C5S            28.6917089303       32.6304805296      -14.6128986496  MEMB      188             0.0000000000
     21752       188  OSM       H5S            27.8872569609       33.1984823329      -15.0963171527  MEMB      188             0.0000000000
     21753       188  OSM       C6S            28.4062066299       32.4551993762      -13.1405123328  MEMB      188             0.0000000000
     21754       188  OSM       H6S            27.4566009603       31.9165783562      -13.0036115008  MEMB      188             0.0000000000
     21755       188  OSM       H6T            28.2059727885       33.4729895793      -12.7248900634  MEMB      188             0.0000000000
     21756       188  OSM       C7S            29.5049170850       31.8903499179      -12.2158938351  MEMB      188             0.0000000000
     21757       188  OSM       H7S            30.4411333477       32.4459795915      -12.4304777909  MEMB      188             0.0000000000
     21758       188  OSM       H7T            29.6769531191       30.8190487480      -12.4593797225  MEMB      188             0.0000000000
     21759       188  OSM       C8S            29.1946822654       32.0035069889      -10.7023496779  MEMB      188             0.0000000000
     21760       188  OSM       H8S            29.1163357834       30.9730232245      -10.2852202425  MEMB      188             0.0000000000
     21761       188  OSM       H8T            28.2023039794       32.4821933297      -10.5422322164  MEMB      188             0.0000000000
     21762       188  OSM       C9S            30.2323811225       32.7756302068       -9.8543967930  MEMB      188             0.0000000000
     21763       188  OSM       H9S            30.0200505118       32.5594461593       -8.7811753004  MEMB      188             0.0000000000
     21764       188  OSM       H9T            30.0823730159       33.8680208806       -9.9813945887  MEMB      188             0.0000000000
     21765       188  OSM       C10S           31.7128991047       32.4582104817      -10.1357148730  MEMB      188             0.0000000000
     21766       188  OSM       H10S           32.3383597429       32.9688049999       -9.3684632591  MEMB      188             0.0000000000
     21767       188  OSM       H10T           32.0142351999       32.8782519571      -11.1123507219  MEMB      188             0.0000000000
     21768       188  OSM       C11S           32.0571491420       30.9676930681      -10.1162520214  MEMB      188             0.0000000000
     21769       188  OSM       H11S           33.1490009356       30.8642372566      -10.3058822480  MEMB      188             0.0000000000
     21770       188  OSM       H11T           31.5401521415       30.4234896064      -10.9353030178  MEMB      188             0.0000000000
     21771       188  OSM       C12S           31.7060848549       30.3563720634       -8.7602374323  MEMB      188             0.0000000000
     21772       188  OSM       H12S           30.6506114048       30.0060550078       -8.7581231538  MEMB      188             0.0000000000
     21773       188  OSM       H12T           31.8001864310       31.1675016014       -8.0037780455  MEMB      188             0.0000000000
     21774       188  OSM       C13S           32.6612952679       29.2419702804       -8.3447158479  MEMB      188             0.0000000000
     21775       188  OSM       H13S           33.6787900371       29.6774483139       -8.2366118586  MEMB      188             0.0000000000
     21776       188  OSM       H13T           32.7256717272       28.4890847920       -9.1639376435  MEMB      188             0.0000000000
     21777       188  OSM       C14S           32.2799785514       28.5120363237       -7.0445752022  MEMB      188             0.0000000000
     21778       188  OSM       H14S           33.1916858419       28.0966940509       -6.6052067770  MEMB      188             0.0000000000
     21779       188  OSM       H14T           31.6814617079       27.6251444781       -7.3308813652  MEMB      188             0.0000000000
     21780       188  OSM       C15S           31.5464544857       29.2997951432       -5.9455135596  MEMB      188             0.0000000000
     21781       188  OSM       H15S           30.6723315402       28.6929799501       -5.6312614402  MEMB      188             0.0000000000
     21782       188  OSM       H15T           31.1516217067       30.2706385520       -6.2974156690  MEMB      188             0.0000000000
     21783       188  OSM       C16S           32.3233157158       29.5537206526       -4.6474456987  MEMB      188             0.0000000000
     21784       188  OSM       H16S           33.1938403278       30.1976704217       -4.8848211656  MEMB      188             0.0000000000
     21785       188  OSM       H16T           32.6967256297       28.5944273121       -4.2352828598  MEMB      188             0.0000000000
     21786       188  OSM       C17S           31.3849265571       30.2142622971       -3.6191964356  MEMB      188             0.0000000000
     21787       188  OSM       H17S           30.3814966403       29.8133576777       -3.8528232927  MEMB      188             0.0000000000
     21788       188  OSM       H17T           31.3552079441       31.3090211553       -3.7799699429  MEMB      188             0.0000000000
     21789       188  OSM       C18S           31.5534032649       29.8662243390       -2.1449390758  MEMB      188             0.0000000000
     21790       188  OSM       H18S           32.5869337135       29.9576900458       -1.7750116905  MEMB      188             0.0000000000
     21791       188  OSM       H18T           31.1731077453       28.8365450520       -1.9878051893  MEMB      188             0.0000000000
     21792       188  OSM       H18U           30.9522634464       30.4965505886       -1.4824721968  MEMB      188             0.0000000000
     21793       188  OSM       C1F            28.8420185591       29.2300140168      -18.0998086438  MEMB      188             0.0000000000
     21794       188  OSM       OF             29.6714675140       28.7703524524      -18.8590267492  MEMB      188             0.0000000000
     21795       188  OSM       C2F            27.6956804215       28.4914390693      -17.5859438872  MEMB      188             0.0000000000
     21796       188  OSM       H2F            27.8290135372       27.4897097812      -18.0358240091  MEMB      188             0.0000000000
     21797       188  OSM       H2G            26.7314712479       28.9073392341      -17.9223743014  MEMB      188             0.0000000000
     21798       188  OSM       C3F            27.8049518133       28.4825176747      -16.0447379001  MEMB      188             0.0000000000
     21799       188  OSM       H3F            28.8624206009       28.2888414723      -15.7552774027  MEMB      188             0.0000000000
     21800       188  OSM       H3G            27.2264335187       27.5955076510      -15.7253535887  MEMB      188             0.0000000000
     21801       188  OSM       C4F            27.3140100952       29.6490128728      -15.1466314033  MEMB      188             0.0000000000
     21802       188  OSM       H4F            26.6680979349       30.3856131648      -15.6340771489  MEMB      188             0.0000000000
     21803       188  OSM       H4G            28.2127007673       30.1678518262      -14.7694232799  MEMB      188             0.0000000000
     21804       188  OSM       C5F            26.6300465735       29.0091620960      -13.9395554665  MEMB      188             0.0000000000
     21805       188  OSM       H5F            27.4236331973       28.2928968904      -13.6228164194  MEMB      188             0.0000000000
     21806       188  OSM       H5G            25.7197579273       28.4628688964      -14.2707939161  MEMB      188             0.0000000000
     21807       188  OSM       C6F            26.3350626115       29.7223450311      -12.6219607461  MEMB      188             0.0000000000
     21808       188  OSM       H6F            25.6825442024       30.6104712692      -12.7213053296  MEMB      188             0.0000000000
     21809       188  OSM       H6G            27.3142482329       30.0329087003      -12.1872853871  MEMB      188             0.0000000000
     21810       188  OSM       C7F            25.6998942216       28.7174799356      -11.6434872740  MEMB      188             0.0000000000
     21811       188  OSM       H7F            26.0267783500       27.7048938507      -11.9292477706  MEMB      188             0.0000000000
     21812       188  OSM       H7G            24.5928087678       28.7033667852      -11.7488894324  MEMB      188             0.0000000000
     21813       188  OSM       C8F            26.2012505931       28.9013883751      -10.2148567778  MEMB      188             0.0000000000
     21814       188  OSM       H8F            27.2569837435       29.2570981302      -10.2424094167  MEMB      188             0.0000000000
     21815       188  OSM       H8G            26.1629082811       27.9841220004       -9.6180640580  MEMB      188             0.0000000000
     21816       188  OSM       C9F            25.3160931997       29.8584835482       -9.5464672332  MEMB      188             0.0000000000
     21817       188  OSM       H9F            24.6222464117       30.3398587549      -10.2465619157  MEMB      188             0.0000000000
     21818       188  OSM       C10F           25.1277864227       30.0480956181       -8.2490962850  MEMB      188             0.0000000000
     21819       188  OSM       H10F           24.4618833698       30.8704627788       -7.9886653652  MEMB      188             0.0000000000
     21820       188  OSM       C11F           25.7224235656       29.3758961784       -7.0515271533  MEMB      188             0.0000000000
     21821       188  OSM       H11F           26.1508663102       28.3919076571       -7.3056796015  MEMB      188             0.0000000000
     21822       188  OSM       H11G           24.8886426931       29.1801882644       -6.3480485467  MEMB      188             0.0000000000
     21823       188  OSM       C12F           26.7466739304       30.2311605618       -6.3063327327  MEMB      188             0.0000000000
     21824       188  OSM       H12F           26.6389196271       31.2704753138       -6.6033681038  MEMB      188             0.0000000000
     21825       188  OSM       H12G           27.7812785445       29.9716296310       -6.5907339868  MEMB      188             0.0000000000
     21826       188  OSM       C13F           26.5895769757       30.2299057979       -4.7884697546  MEMB      188             0.0000000000
     21827       188  OSM       H13F           26.3569834671       29.2097948718       -4.4251628182  MEMB      188             0.0000000000
     21828       188  OSM       H13G           25.7181429471       30.8612127024       -4.5273601249  MEMB      188             0.0000000000
     21829       188  OSM       C14F           27.8797413514       30.7377133451       -4.1342002436  MEMB      188             0.0000000000
     21830       188  OSM       H14F           28.0313640328       31.8120523152       -4.3482548488  MEMB      188             0.0000000000
     21831       188  OSM       H14G           28.7177460996       30.2591786870       -4.6622957650  MEMB      188             0.0000000000
     21832       188  OSM       C15F           27.9395913094       30.4470344008       -2.6307924876  MEMB      188             0.0000000000
     21833       188  OSM       H15F           28.5861324351       29.5627587400       -2.4393045636  MEMB      188             0.0000000000
     21834       188  OSM       H15G           26.9130293220       30.1675950211       -2.2994704885  MEMB      188             0.0000000000
     21835       188  OSM       C16F           28.4249435989       31.6213381753       -1.7701368513  MEMB      188             0.0000000000
     21836       188  OSM       H16F           28.2739469796       32.5885792631       -2.2513473989  MEMB      188             0.0000000000
     21837       188  OSM       H16G           29.5153207254       31.6264300551       -1.6842402168  MEMB      188             0.0000000000
     21838       188  OSM       C17F           27.8620879310       31.5382957255       -0.3519259745  MEMB      188             0.0000000000
     21839       188  OSM       H17F           28.5333332615       32.1104039714        0.3286256400  MEMB      188             0.0000000000
     21840       188  OSM       H17G           27.9208919538       30.4580191221       -0.0927756821  MEMB      188             0.0000000000
     21841       188  OSM       C18F           26.4231117711       32.0018733127       -0.1329438092  MEMB      188             0.0000000000
     21842       188  OSM       H18F           25.9694390734       31.4656074332        0.7281774487  MEMB      188             0.0000000000
     21843       188  OSM       H18G           25.8017977250       31.8131525888       -1.0327488440  MEMB      188             0.0000000000
     21844       188  OSM       H18H           26.4000302752       33.0873891002        0.0973519811  MEMB      188             0.0000000000
     21845       189  OSM       N             -37.8151513550      -28.2919286323      -21.2347625695  MEMB      189             0.0000000000
     21846       189  OSM       C15           -37.2098280283      -29.5717057624      -20.7376471809  MEMB      189             0.0000000000
     21847       189  OSM       H15A          -37.6053499424      -30.4425205443      -21.2358651586  MEMB      189             0.0000000000
     21848       189  OSM       H15B          -37.2099598138      -29.6608335391      -19.6705276779  MEMB      189             0.0000000000
     21849       189  OSM       H15C          -36.1525822863      -29.5620707873      -21.0523846095  MEMB      189             0.0000000000
     21850       189  OSM       C14           -37.7051434678      -28.3029778900      -22.7361237919  MEMB      189             0.0000000000
     21851       189  OSM       H14A          -36.6542126412      -28.1518698815      -22.9934125540  MEMB      189             0.0000000000
     21852       189  OSM       H14B          -38.2962348236      -27.5105969117      -23.1825787595  MEMB      189             0.0000000000
     21853       189  OSM       H14C          -37.9785897387      -29.2590516269      -23.1776492940  MEMB      189             0.0000000000
     21854       189  OSM       C13           -39.2437334101      -28.1435389811      -20.8683072466  MEMB      189             0.0000000000
     21855       189  OSM       H13A          -39.4030896358      -28.1708143913      -19.7980004652  MEMB      189             0.0000000000
     21856       189  OSM       H13B          -39.7981471390      -28.9184540697      -21.3621266432  MEMB      189             0.0000000000
     21857       189  OSM       H13C          -39.6144311585      -27.1888486705      -21.2566678622  MEMB      189             0.0000000000
     21858       189  OSM       C12           -37.0262432724      -27.1075644670      -20.7049154830  MEMB      189             0.0000000000
     21859       189  OSM       H12A          -36.9559909927      -27.1699314674      -19.6272920894  MEMB      189             0.0000000000
     21860       189  OSM       H12B          -37.5621822207      -26.1915078015      -20.9212425415  MEMB      189             0.0000000000
     21861       189  OSM       C11           -35.5841442753      -26.9480326621      -21.2316912550  MEMB      189             0.0000000000
     21862       189  OSM       H11A          -35.1154835751      -26.1256441094      -20.6279110116  MEMB      189             0.0000000000
     21863       189  OSM       H11B          -35.5977261783      -26.6043765526      -22.2864807395  MEMB      189             0.0000000000
     21864       189  OSM       P             -33.3424933366      -28.1474474922      -20.7907401588  MEMB      189             0.0000000000
     21865       189  OSM       O13           -32.7475784120      -29.4231540590      -21.2615726467  MEMB      189             0.0000000000
     21866       189  OSM       O14           -32.8157576489      -26.8663432987      -21.3209888912  MEMB      189             0.0000000000
     21867       189  OSM       O11           -33.4195709980      -28.1587478080      -19.1958243997  MEMB      189             0.0000000000
     21868       189  OSM       O12           -34.8708179132      -28.1889328424      -21.1509629987  MEMB      189             0.0000000000
     21869       189  OSM       C1S           -34.5689531966      -28.8182012333      -18.6220188411  MEMB      189             0.0000000000
     21870       189  OSM       H1S           -34.6672744877      -29.8630329290      -19.0015234030  MEMB      189             0.0000000000
     21871       189  OSM       H1T           -35.4982075894      -28.2534989658      -18.8449793240  MEMB      189             0.0000000000
     21872       189  OSM       NF            -35.7848796015      -29.3927400786      -16.5315371449  MEMB      189             0.0000000000
     21873       189  OSM       HNF           -36.1081132455      -28.8839818403      -15.7390539630  MEMB      189             0.0000000000
     21874       189  OSM       C2S           -34.5372205610      -28.8916096520      -17.0742081615  MEMB      189             0.0000000000
     21875       189  OSM       H2S           -33.7260002997      -29.6075152936      -16.8127557651  MEMB      189             0.0000000000
     21876       189  OSM       C3S           -34.2600985778      -27.5117693717      -16.4274529597  MEMB      189             0.0000000000
     21877       189  OSM       H3S           -35.2187664288      -26.9392885646      -16.4484031520  MEMB      189             0.0000000000
     21878       189  OSM       O3            -33.3008842383      -26.6904665323      -17.0566168975  MEMB      189             0.0000000000
     21879       189  OSM       HO3           -33.1121270963      -27.1038920944      -17.9150331726  MEMB      189             0.0000000000
     21880       189  OSM       C4S           -33.8248444383      -27.6897675990      -15.0076120324  MEMB      189             0.0000000000
     21881       189  OSM       H4S           -33.1793435321      -28.5526093485      -14.8137972541  MEMB      189             0.0000000000
     21882       189  OSM       C5S           -34.1635404554      -26.8816062471      -13.9914098562  MEMB      189             0.0000000000
     21883       189  OSM       H5S           -34.8314820385      -26.0246659232      -14.1828151580  MEMB      189             0.0000000000
     21884       189  OSM       C6S           -33.7094667652      -27.0589350135      -12.5711032010  MEMB      189             0.0000000000
     21885       189  OSM       H6S           -34.4648367262      -26.6069038052      -11.9005016625  MEMB      189             0.0000000000
     21886       189  OSM       H6T           -32.7557700944      -26.5074456799      -12.4089548167  MEMB      189             0.0000000000
     21887       189  OSM       C7S           -33.4881470729      -28.5263608668      -12.1946602724  MEMB      189             0.0000000000
     21888       189  OSM       H7S           -32.6211980181      -28.9249794447      -12.7626386263  MEMB      189             0.0000000000
     21889       189  OSM       H7T           -34.3661806085      -29.1027657212      -12.5439587695  MEMB      189             0.0000000000
     21890       189  OSM       C8S           -33.1945060886      -28.7857838998      -10.7071571646  MEMB      189             0.0000000000
     21891       189  OSM       H8S           -32.1531623845      -28.4605989257      -10.5024443321  MEMB      189             0.0000000000
     21892       189  OSM       H8T           -33.2697744568      -29.8832757564      -10.5501507059  MEMB      189             0.0000000000
     21893       189  OSM       C9S           -34.0992830387      -28.1177642222       -9.6643272839  MEMB      189             0.0000000000
     21894       189  OSM       H9S           -35.1003236403      -28.5877523938       -9.7354834684  MEMB      189             0.0000000000
     21895       189  OSM       H9T           -34.1973077658      -27.0266161426       -9.8488295860  MEMB      189             0.0000000000
     21896       189  OSM       C10S          -33.6409066131      -28.3172236641       -8.2113086009  MEMB      189             0.0000000000
     21897       189  OSM       H10S          -34.4579763503      -27.9124889811       -7.5818762012  MEMB      189             0.0000000000
     21898       189  OSM       H10T          -32.7318253725      -27.7153884722       -8.0047086844  MEMB      189             0.0000000000
     21899       189  OSM       C11S          -33.4233377831      -29.7957404177       -7.8627264409  MEMB      189             0.0000000000
     21900       189  OSM       H11S          -32.4632581102      -30.1523857359       -8.2988815434  MEMB      189             0.0000000000
     21901       189  OSM       H11T          -34.2507757343      -30.3616189869       -8.3483474754  MEMB      189             0.0000000000
     21902       189  OSM       C12S          -33.4667471638      -30.1480491602       -6.3673936932  MEMB      189             0.0000000000
     21903       189  OSM       H12S          -32.5654689300      -29.8202512674       -5.8446580899  MEMB      189             0.0000000000
     21904       189  OSM       H12T          -33.4162895083      -31.2465234783       -6.2806180501  MEMB      189             0.0000000000
     21905       189  OSM       C13S          -34.6499783710      -29.5237507796       -5.6160696260  MEMB      189             0.0000000000
     21906       189  OSM       H13S          -35.5754777939      -29.6421007088       -6.2228943108  MEMB      189             0.0000000000
     21907       189  OSM       H13T          -34.4325055286      -28.4451375941       -5.5279408394  MEMB      189             0.0000000000
     21908       189  OSM       C14S          -34.9042050413      -30.1075335252       -4.2225822874  MEMB      189             0.0000000000
     21909       189  OSM       H14S          -34.4608737621      -31.1186106190       -4.1992642074  MEMB      189             0.0000000000
     21910       189  OSM       H14T          -36.0019192389      -30.2088376626       -4.0646087170  MEMB      189             0.0000000000
     21911       189  OSM       C15S          -34.3341488827      -29.3469658807       -3.0251371181  MEMB      189             0.0000000000
     21912       189  OSM       H15S          -34.5875783588      -28.2687883602       -3.0684871708  MEMB      189             0.0000000000
     21913       189  OSM       H15T          -33.2317799926      -29.4210219087       -3.0632025731  MEMB      189             0.0000000000
     21914       189  OSM       C16S          -34.8587491529      -29.9762940630       -1.7240852818  MEMB      189             0.0000000000
     21915       189  OSM       H16S          -34.8547543124      -31.0808141912       -1.8316738599  MEMB      189             0.0000000000
     21916       189  OSM       H16T          -35.9251128849      -29.7189241946       -1.5686410953  MEMB      189             0.0000000000
     21917       189  OSM       C17S          -34.0474000401      -29.6148199953       -0.4816197164  MEMB      189             0.0000000000
     21918       189  OSM       H17S          -34.7699071519      -29.3826814288        0.3279328439  MEMB      189             0.0000000000
     21919       189  OSM       H17T          -33.4613443077      -28.6862595005       -0.6576915277  MEMB      189             0.0000000000
     21920       189  OSM       C18S          -33.1157846069      -30.7612166701       -0.0766529256  MEMB      189             0.0000000000
     21921       189  OSM       H18S          -33.6586152279      -31.6430676925        0.2953417945  MEMB      189             0.0000000000
     21922       189  OSM       H18T          -32.3373533494      -30.4814322748        0.6552015448  MEMB      189             0.0000000000
     21923       189  OSM       H18U          -32.5808440279      -31.0993496772       -0.9669555841  MEMB      189             0.0000000000
     21924       189  OSM       C1F           -36.5707207087      -30.3840341039      -16.9217039762  MEMB      189             0.0000000000
     21925       189  OSM       OF            -36.2905325928      -31.2545744294      -17.7325995137  MEMB      189             0.0000000000
     21926       189  OSM       C2F           -37.9524136473      -30.2893391339      -16.3655261942  MEMB      189             0.0000000000
     21927       189  OSM       H2F           -38.6857185298      -30.7534874142      -17.0589890572  MEMB      189             0.0000000000
     21928       189  OSM       H2G           -38.2175281187      -29.2102961306      -16.2839219544  MEMB      189             0.0000000000
     21929       189  OSM       C3F           -38.0295823050      -30.9456212449      -14.9768423477  MEMB      189             0.0000000000
     21930       189  OSM       H3F           -37.9636704913      -32.0511286905      -15.0710242345  MEMB      189             0.0000000000
     21931       189  OSM       H3G           -39.0281954041      -30.6737264303      -14.5568022870  MEMB      189             0.0000000000
     21932       189  OSM       C4F           -36.9662918506      -30.4704440047      -13.9718761901  MEMB      189             0.0000000000
     21933       189  OSM       H4F           -36.9245939751      -29.3672231431      -14.0893184005  MEMB      189             0.0000000000
     21934       189  OSM       H4G           -35.9547522178      -30.8645274119      -14.2194537828  MEMB      189             0.0000000000
     21935       189  OSM       C5F           -37.3093854897      -30.8384301966      -12.5182112884  MEMB      189             0.0000000000
     21936       189  OSM       H5F           -37.0026926588      -31.8855356441      -12.3083290025  MEMB      189             0.0000000000
     21937       189  OSM       H5G           -38.4134508847      -30.7919059922      -12.4044441323  MEMB      189             0.0000000000
     21938       189  OSM       C6F           -36.7086144564      -29.8731333382      -11.4854630460  MEMB      189             0.0000000000
     21939       189  OSM       H6F           -35.6196585594      -30.0575100310      -11.4263079967  MEMB      189             0.0000000000
     21940       189  OSM       H6G           -37.0869160715      -30.0997135165      -10.4656875092  MEMB      189             0.0000000000
     21941       189  OSM       C7F           -37.0353534554      -28.4104194067      -11.8513622488  MEMB      189             0.0000000000
     21942       189  OSM       H7F           -37.9890908074      -28.3971697250      -12.4062272180  MEMB      189             0.0000000000
     21943       189  OSM       H7G           -36.2856386269      -28.0190865846      -12.5683797839  MEMB      189             0.0000000000
     21944       189  OSM       C8F           -37.1359249125      -27.4273989054      -10.6820745527  MEMB      189             0.0000000000
     21945       189  OSM       H8F           -36.2146803274      -26.8156773955      -10.7711958891  MEMB      189             0.0000000000
     21946       189  OSM       H8G           -37.0807019159      -27.9688618835       -9.7133036935  MEMB      189             0.0000000000
     21947       189  OSM       C9F           -38.3263139095      -26.5118490087      -10.6548315983  MEMB      189             0.0000000000
     21948       189  OSM       H9F           -39.2549494630      -26.8503480089      -11.1330027264  MEMB      189             0.0000000000
     21949       189  OSM       C10F          -38.3247382692      -25.3777347821       -9.9553468373  MEMB      189             0.0000000000
     21950       189  OSM       H10F          -39.2705426374      -24.8593870906       -9.7829192984  MEMB      189             0.0000000000
     21951       189  OSM       C11F          -37.1536037088      -24.9159571115       -9.1358490328  MEMB      189             0.0000000000
     21952       189  OSM       H11F          -36.9504457667      -23.8373379073       -9.2183031439  MEMB      189             0.0000000000
     21953       189  OSM       H11G          -36.1912756740      -25.3810851328       -9.4308586228  MEMB      189             0.0000000000
     21954       189  OSM       C12F          -37.4820213320      -25.2856094703       -7.6960370206  MEMB      189             0.0000000000
     21955       189  OSM       H12F          -38.0640198095      -26.2371791268       -7.6219381411  MEMB      189             0.0000000000
     21956       189  OSM       H12G          -38.0985364901      -24.4809323783       -7.2394019901  MEMB      189             0.0000000000
     21957       189  OSM       C13F          -36.2294590166      -25.5026962810       -6.8742547221  MEMB      189             0.0000000000
     21958       189  OSM       H13F          -35.4615990232      -24.7279125827       -7.0908401446  MEMB      189             0.0000000000
     21959       189  OSM       H13G          -35.8033687190      -26.4901774431       -7.1512463899  MEMB      189             0.0000000000
     21960       189  OSM       C14F          -36.5856146987      -25.4912781039       -5.3996213031  MEMB      189             0.0000000000
     21961       189  OSM       H14F          -37.3901415159      -26.2404071139       -5.2086796876  MEMB      189             0.0000000000
     21962       189  OSM       H14G          -36.9727976132      -24.4855065922       -5.1196300394  MEMB      189             0.0000000000
     21963       189  OSM       C15F          -35.3738114918      -25.8371908095       -4.5597011207  MEMB      189             0.0000000000
     21964       189  OSM       H15F          -34.4758781191      -25.3023858897       -4.9465812633  MEMB      189             0.0000000000
     21965       189  OSM       H15G          -35.1880599542      -26.9203943252       -4.6517542650  MEMB      189             0.0000000000
     21966       189  OSM       C16F          -35.5514520811      -25.5101846799       -3.0880493668  MEMB      189             0.0000000000
     21967       189  OSM       H16F          -35.4551139591      -24.4066228462       -2.9717145920  MEMB      189             0.0000000000
     21968       189  OSM       H16G          -34.7027899974      -26.0010445754       -2.5645884993  MEMB      189             0.0000000000
     21969       189  OSM       C17F          -36.8883729243      -25.9319396210       -2.4541539804  MEMB      189             0.0000000000
     21970       189  OSM       H17F          -37.7290028517      -25.4400241121       -2.9842889742  MEMB      189             0.0000000000
     21971       189  OSM       H17G          -36.8865249811      -25.5513575295       -1.4071495288  MEMB      189             0.0000000000
     21972       189  OSM       C18F          -37.1431233898      -27.4310852647       -2.3788082830  MEMB      189             0.0000000000
     21973       189  OSM       H18F          -36.4151969128      -27.8323568316       -1.6465803676  MEMB      189             0.0000000000
     21974       189  OSM       H18G          -37.0036420023      -27.9306556070       -3.3604857944  MEMB      189             0.0000000000
     21975       189  OSM       H18H          -38.1630054046      -27.6558789378       -1.9979014804  MEMB      189             0.0000000000
     21976       190  SAPC      N             -29.4432181821      -33.7232083218      -21.5724304233  MEMB      190             0.0000000000
     21977       190  SAPC      C12           -30.8548440456      -34.1323804884      -22.0008618944  MEMB      190             0.0000000000
     21978       190  SAPC      H12A          -30.8070385637      -34.6472308211      -22.9541519379  MEMB      190             0.0000000000
     21979       190  SAPC      H12B          -31.4126678588      -33.2193574211      -22.1817228011  MEMB      190             0.0000000000
     21980       190  SAPC      C13           -28.4641688158      -34.8515243937      -21.6110583921  MEMB      190             0.0000000000
     21981       190  SAPC      H13A          -28.6516614316      -35.5351900095      -20.7949760849  MEMB      190             0.0000000000
     21982       190  SAPC      H13B          -28.5093443993      -35.4218997072      -22.5352497644  MEMB      190             0.0000000000
     21983       190  SAPC      H13C          -27.4385180823      -34.5016778653      -21.5353642794  MEMB      190             0.0000000000
     21984       190  SAPC      C14           -28.9768961549      -32.6491590983      -22.4995272748  MEMB      190             0.0000000000
     21985       190  SAPC      H14A          -29.6424696602      -31.7936582342      -22.4810560305  MEMB      190             0.0000000000
     21986       190  SAPC      H14B          -27.9901948709      -32.2772760886      -22.2203903202  MEMB      190             0.0000000000
     21987       190  SAPC      H14C          -28.9058747420      -32.9977630777      -23.5235049438  MEMB      190             0.0000000000
     21988       190  SAPC      C15           -29.4769959447      -33.0938151401      -20.2110602271  MEMB      190             0.0000000000
     21989       190  SAPC      H15A          -28.5066342775      -32.7446713516      -19.9019437516  MEMB      190             0.0000000000
     21990       190  SAPC      H15B          -30.1621652793      -32.2548951240      -20.2047988792  MEMB      190             0.0000000000
     21991       190  SAPC      H15C          -29.8658823224      -33.8069381971      -19.4841536312  MEMB      190             0.0000000000
     21992       190  SAPC      C11           -31.7665241896      -34.9961906760      -21.0888661482  MEMB      190             0.0000000000
     21993       190  SAPC      H11A          -31.9963319343      -35.9378087556      -21.6461936595  MEMB      190             0.0000000000
     21994       190  SAPC      H11B          -32.7429020275      -34.4513758639      -20.9718273361  MEMB      190             0.0000000000
     21995       190  SAPC      P             -32.0748706642      -36.0115377169      -18.7500608897  MEMB      190             0.0000000000
     21996       190  SAPC      O13           -33.2016997283      -35.0997262637      -18.4516330554  MEMB      190             0.0000000000
     21997       190  SAPC      O14           -32.4003597471      -37.3560029423      -19.2639810820  MEMB      190             0.0000000000
     21998       190  SAPC      O12           -31.1551510784      -35.3087303420      -19.8350707503  MEMB      190             0.0000000000
     21999       190  SAPC      O11           -31.0227964293      -36.2211526177      -17.5358148881  MEMB      190             0.0000000000
     22000       190  SAPC      C1            -29.9336235557      -37.0918624888      -17.9817154884  MEMB      190             0.0000000000
     22001       190  SAPC      HA            -30.3325568663      -38.0431576743      -18.4145094394  MEMB      190             0.0000000000
     22002       190  SAPC      HB            -29.3328907710      -36.5423323146      -18.7442839043  MEMB      190             0.0000000000
     22003       190  SAPC      C2            -28.8108125562      -37.6048017368      -17.0026301273  MEMB      190             0.0000000000
     22004       190  SAPC      HS            -28.1220845052      -38.2298661672      -17.6160762034  MEMB      190             0.0000000000
     22005       190  SAPC      O21           -29.3632518277      -38.3924826909      -15.9335999102  MEMB      190             0.0000000000
     22006       190  SAPC      C21           -28.6934084406      -38.7332593989      -14.8408582019  MEMB      190             0.0000000000
     22007       190  SAPC      O22           -27.5112860367      -38.5926898632      -14.6023657295  MEMB      190             0.0000000000
     22008       190  SAPC      C22           -29.7015760499      -39.4112594530      -13.9183078897  MEMB      190             0.0000000000
     22009       190  SAPC      H2R           -30.5202738913      -38.6750562971      -13.7968948391  MEMB      190             0.0000000000
     22010       190  SAPC      H2S           -30.0978910249      -40.2954912869      -14.4520122037  MEMB      190             0.0000000000
     22011       190  SAPC      C3            -27.9960828080      -36.4208804314      -16.4638094865  MEMB      190             0.0000000000
     22012       190  SAPC      HX            -27.6218041661      -35.8309559760      -17.3330446259  MEMB      190             0.0000000000
     22013       190  SAPC      HY            -27.1162025969      -36.8301801593      -15.9590558031  MEMB      190             0.0000000000
     22014       190  SAPC      O31           -28.7362286650      -35.6729815323      -15.5133963661  MEMB      190             0.0000000000
     22015       190  SAPC      C31           -29.0584737685      -34.4644202429      -15.8759498350  MEMB      190             0.0000000000
     22016       190  SAPC      O32           -28.5012017581      -33.7864928567      -16.7322682766  MEMB      190             0.0000000000
     22017       190  SAPC      C32           -30.1805456623      -33.9695198656      -14.9526533633  MEMB      190             0.0000000000
     22018       190  SAPC      H2X           -31.0268509057      -33.6762810506      -15.6051571875  MEMB      190             0.0000000000
     22019       190  SAPC      H2Y           -29.7533207985      -33.0805608219      -14.4706085443  MEMB      190             0.0000000000
     22020       190  SAPC      C23           -29.1610950203      -39.8446432546      -12.5361919900  MEMB      190             0.0000000000
     22021       190  SAPC      H3R           -28.4362445597      -39.1055156381      -12.1473845799  MEMB      190             0.0000000000
     22022       190  SAPC      H3S           -28.6077610361      -40.7981634467      -12.6474419461  MEMB      190             0.0000000000
     22023       190  SAPC      C24           -30.2767197767      -40.0499213219      -11.4937471433  MEMB      190             0.0000000000
     22024       190  SAPC      H4R           -29.8456607355      -40.3939895338      -10.5278903625  MEMB      190             0.0000000000
     22025       190  SAPC      H4S           -30.8707818416      -40.9040612314      -11.8476100160  MEMB      190             0.0000000000
     22026       190  SAPC      C25           -31.1389013355      -38.8241780845      -11.2970820873  MEMB      190             0.0000000000
     22027       190  SAPC      H5R           -32.0183946652      -38.7174999044      -11.9505677636  MEMB      190             0.0000000000
     22028       190  SAPC      C26           -30.8239776636      -37.8097054687      -10.4840152891  MEMB      190             0.0000000000
     22029       190  SAPC      H6R           -31.4524930759      -36.9042941812      -10.4683595153  MEMB      190             0.0000000000
     22030       190  SAPC      C27           -29.5717649577      -37.7455840219       -9.6549473713  MEMB      190             0.0000000000
     22031       190  SAPC      H7R           -29.1859578298      -38.7554392254       -9.4124552512  MEMB      190             0.0000000000
     22032       190  SAPC      H7S           -29.7953803914      -37.2813839421       -8.6695487626  MEMB      190             0.0000000000
     22033       190  SAPC      C28           -28.5541481840      -36.9556732217      -10.4414308047  MEMB      190             0.0000000000
     22034       190  SAPC      H8R           -27.9427181938      -37.5096942029      -11.1676066884  MEMB      190             0.0000000000
     22035       190  SAPC      C29           -28.3831135317      -35.6338925839      -10.3418943282  MEMB      190             0.0000000000
     22036       190  SAPC      H9R           -27.6313502173      -35.1254655994      -10.9474020060  MEMB      190             0.0000000000
     22037       190  SAPC      C210          -29.1681157000      -34.7455582763       -9.4352840465  MEMB      190             0.0000000000
     22038       190  SAPC      H10R          -30.1785345092      -35.1685565829       -9.2664245933  MEMB      190             0.0000000000
     22039       190  SAPC      H10S          -29.3024458543      -33.7536315526       -9.9150790079  MEMB      190             0.0000000000
     22040       190  SAPC      C211          -28.4369886815      -34.6235191220       -8.1350851113  MEMB      190             0.0000000000
     22041       190  SAPC      H11R          -27.7062481920      -35.4147474342       -7.8975210675  MEMB      190             0.0000000000
     22042       190  SAPC      C212          -28.6527138733      -33.6754588735       -7.2261842740  MEMB      190             0.0000000000
     22043       190  SAPC      H12R          -27.9872320848      -33.6667550000       -6.3486762622  MEMB      190             0.0000000000
     22044       190  SAPC      C213          -29.6601366993      -32.5480652972       -7.3025281321  MEMB      190             0.0000000000
     22045       190  SAPC      H13R          -30.6864276703      -32.9398533675       -7.4395394617  MEMB      190             0.0000000000
     22046       190  SAPC      H13S          -29.4884973441      -31.9320117444       -8.2119049282  MEMB      190             0.0000000000
     22047       190  SAPC      C214          -29.6230541884      -31.6913071286       -6.0591610100  MEMB      190             0.0000000000
     22048       190  SAPC      H14R          -29.4362189703      -30.6173853341       -6.2209308997  MEMB      190             0.0000000000
     22049       190  SAPC      C215          -29.7432834042      -32.1446926131       -4.7965882922  MEMB      190             0.0000000000
     22050       190  SAPC      H15R          -29.7183934673      -31.4346514677       -3.9569012035  MEMB      190             0.0000000000
     22051       190  SAPC      C216          -29.9432229792      -33.5761501135       -4.3814268118  MEMB      190             0.0000000000
     22052       190  SAPC      H16R          -30.2669922987      -34.2423878459       -5.2144595923  MEMB      190             0.0000000000
     22053       190  SAPC      H16S          -30.7998974997      -33.5503024450       -3.7223198690  MEMB      190             0.0000000000
     22054       190  SAPC      C217          -28.8014144490      -34.2324144125       -3.5678332739  MEMB      190             0.0000000000
     22055       190  SAPC      H17R          -27.9111883295      -34.3482377305       -4.2181576159  MEMB      190             0.0000000000
     22056       190  SAPC      H17S          -29.1427355312      -35.2554602326       -3.3043923410  MEMB      190             0.0000000000
     22057       190  SAPC      C218          -28.4424381515      -33.4571768172       -2.2783870755  MEMB      190             0.0000000000
     22058       190  SAPC      H18R          -29.3734789770      -33.3131959923       -1.6827552222  MEMB      190             0.0000000000
     22059       190  SAPC      H18S          -28.0686445162      -32.4536761819       -2.5792999697  MEMB      190             0.0000000000
     22060       190  SAPC      C219          -27.3862052409      -34.0959739620       -1.3540464432  MEMB      190             0.0000000000
     22061       190  SAPC      H19R          -26.4904284305      -34.3735478499       -1.9526088857  MEMB      190             0.0000000000
     22062       190  SAPC      H19S          -27.8031281206      -35.0375159124       -0.9307170255  MEMB      190             0.0000000000
     22063       190  SAPC      C220          -26.9529881860      -33.1716521732       -0.2004315552  MEMB      190             0.0000000000
     22064       190  SAPC      H20R          -27.7115642099      -32.3730191023       -0.0412730214  MEMB      190             0.0000000000
     22065       190  SAPC      H20S          -25.9807236712      -32.6835776920       -0.4316530009  MEMB      190             0.0000000000
     22066       190  SAPC      H20T          -26.8367902662      -33.7296916815        0.7555984202  MEMB      190             0.0000000000
     22067       190  SAPC      C33           -30.6488549721      -34.9688879294      -13.8568242778  MEMB      190             0.0000000000
     22068       190  SAPC      H3X           -29.9753831256      -34.8952228207      -12.9754967044  MEMB      190             0.0000000000
     22069       190  SAPC      H3Y           -30.5556247436      -36.0106825690      -14.2435303094  MEMB      190             0.0000000000
     22070       190  SAPC      C34           -32.1316893653      -34.8722790772      -13.4456637178  MEMB      190             0.0000000000
     22071       190  SAPC      H4X           -32.3454374088      -35.7948474771      -12.8536499352  MEMB      190             0.0000000000
     22072       190  SAPC      H4Y           -32.7704388845      -34.9063210909      -14.3554881615  MEMB      190             0.0000000000
     22073       190  SAPC      C35           -32.5393470981      -33.6868969030      -12.5529549264  MEMB      190             0.0000000000
     22074       190  SAPC      H5X           -33.5784392292      -33.8826643041      -12.1985810476  MEMB      190             0.0000000000
     22075       190  SAPC      H5Y           -32.5567018767      -32.7451323340      -13.1398922798  MEMB      190             0.0000000000
     22076       190  SAPC      C36           -31.6252351687      -33.5465592128      -11.3332007805  MEMB      190             0.0000000000
     22077       190  SAPC      H6X           -30.6367840067      -33.1586746848      -11.6630419089  MEMB      190             0.0000000000
     22078       190  SAPC      H6Y           -31.4436549116      -34.5637129622      -10.9237627491  MEMB      190             0.0000000000
     22079       190  SAPC      C37           -32.1617557454      -32.6506232996      -10.2038825649  MEMB      190             0.0000000000
     22080       190  SAPC      H7X           -32.2449287697      -31.6193896194      -10.5984044580  MEMB      190             0.0000000000
     22081       190  SAPC      H7Y           -31.3961605192      -32.6181354344       -9.4015696693  MEMB      190             0.0000000000
     22082       190  SAPC      C38           -33.5100296669      -33.0815207751       -9.5924708922  MEMB      190             0.0000000000
     22083       190  SAPC      H8X           -34.3033092137      -32.8942156088      -10.3516010366  MEMB      190             0.0000000000
     22084       190  SAPC      H8Y           -33.7377388059      -32.4368959846       -8.7145687298  MEMB      190             0.0000000000
     22085       190  SAPC      C39           -33.5862530802      -34.5602045097       -9.1585828519  MEMB      190             0.0000000000
     22086       190  SAPC      H9X           -33.2653810163      -35.2070025573      -10.0019447709  MEMB      190             0.0000000000
     22087       190  SAPC      H9Y           -34.6478432122      -34.8147752813       -8.9540186833  MEMB      190             0.0000000000
     22088       190  SAPC      C310          -32.7557183426      -34.8895671851       -7.9051001238  MEMB      190             0.0000000000
     22089       190  SAPC      H10X          -33.1380268221      -34.2936862193       -7.0472125805  MEMB      190             0.0000000000
     22090       190  SAPC      H10Y          -31.7068682736      -34.5813827939       -8.0734093009  MEMB      190             0.0000000000
     22091       190  SAPC      C311          -32.7482865893      -36.3806243352       -7.5191018613  MEMB      190             0.0000000000
     22092       190  SAPC      H11X          -32.3628622852      -36.9869495711       -8.3653561913  MEMB      190             0.0000000000
     22093       190  SAPC      H11Y          -33.7963726673      -36.6997585960       -7.3282574249  MEMB      190             0.0000000000
     22094       190  SAPC      C312          -31.8955696449      -36.6644208191       -6.2655881309  MEMB      190             0.0000000000
     22095       190  SAPC      H12X          -32.1909624178      -35.9283563174       -5.4875583575  MEMB      190             0.0000000000
     22096       190  SAPC      H12Y          -30.8190725304      -36.4906424993       -6.4884064814  MEMB      190             0.0000000000
     22097       190  SAPC      C313          -32.0966390020      -38.0796165702       -5.6962475942  MEMB      190             0.0000000000
     22098       190  SAPC      H13X          -31.5329194351      -38.8215429551       -6.3041936039  MEMB      190             0.0000000000
     22099       190  SAPC      H13Y          -33.1798428348      -38.3277675003       -5.7907246601  MEMB      190             0.0000000000
     22100       190  SAPC      C314          -31.7261619509      -38.2152715698       -4.2055189256  MEMB      190             0.0000000000
     22101       190  SAPC      H14X          -32.2705517197      -39.0996469851       -3.7981247476  MEMB      190             0.0000000000
     22102       190  SAPC      H14Y          -32.0738993065      -37.3213787570       -3.6428197745  MEMB      190             0.0000000000
     22103       190  SAPC      C315          -30.2301242703      -38.4495823746       -3.9473104701  MEMB      190             0.0000000000
     22104       190  SAPC      H15X          -29.6305532141      -37.5731692280       -4.2758447458  MEMB      190             0.0000000000
     22105       190  SAPC      H15Y          -29.9226920827      -39.3222892200       -4.5709904665  MEMB      190             0.0000000000
     22106       190  SAPC      C316          -29.9178351220      -38.8055664359       -2.4800903243  MEMB      190             0.0000000000
     22107       190  SAPC      H16X          -28.9152952022      -39.2790709436       -2.4296359835  MEMB      190             0.0000000000
     22108       190  SAPC      H16Y          -30.6422954337      -39.5690835010       -2.1317648596  MEMB      190             0.0000000000
     22109       190  SAPC      C317          -29.9060077778      -37.6365285490       -1.4862806534  MEMB      190             0.0000000000
     22110       190  SAPC      H17X          -30.9154317666      -37.5583181735       -1.0253192433  MEMB      190             0.0000000000
     22111       190  SAPC      H17Y          -29.7202331390      -36.6857813570       -2.0232370108  MEMB      190             0.0000000000
     22112       190  SAPC      C318          -28.8356481743      -37.7876897912       -0.3968648199  MEMB      190             0.0000000000
     22113       190  SAPC      H18X          -27.8368329022      -37.4897292719       -0.7810794229  MEMB      190             0.0000000000
     22114       190  SAPC      H18Y          -28.7670271830      -38.8445315666       -0.0727608639  MEMB      190             0.0000000000
     22115       190  SAPC      H18Z          -29.0691498119      -37.1632079553        0.4911073238  MEMB      190             0.0000000000
     22116       191  CHL1      C3            -33.9836706085       31.6384344546      -17.5029034566  MEMB      191             0.0000000000
     22117       191  CHL1      H3            -33.7110566100       32.7164960043      -17.3860924883  MEMB      191             0.0000000000
     22118       191  CHL1      O3            -33.5533942780       31.1716653856      -18.7709806495  MEMB      191             0.0000000000
     22119       191  CHL1      H3'           -34.2671375116       31.4077630228      -19.3919664271  MEMB      191             0.0000000000
     22120       191  CHL1      C4            -33.2815507312       30.7994003262      -16.4368985093  MEMB      191             0.0000000000
     22121       191  CHL1      H4A           -33.5345559183       29.7302632701      -16.5968648996  MEMB      191             0.0000000000
     22122       191  CHL1      H4B           -32.1824020857       30.8942993148      -16.5929290889  MEMB      191             0.0000000000
     22123       191  CHL1      C5            -33.6991975991       31.2100463897      -15.0503643409  MEMB      191             0.0000000000
     22124       191  CHL1      C6            -32.7655322007       31.5619972891      -14.1618252003  MEMB      191             0.0000000000
     22125       191  CHL1      H6            -31.7004908305       31.5367161202      -14.4328758979  MEMB      191             0.0000000000
     22126       191  CHL1      C7            -33.0875121042       31.8783616406      -12.7463583521  MEMB      191             0.0000000000
     22127       191  CHL1      H7A           -32.4276847013       31.2860153190      -12.0739942719  MEMB      191             0.0000000000
     22128       191  CHL1      H7B           -32.9457087571       32.9608491738      -12.5608578946  MEMB      191             0.0000000000
     22129       191  CHL1      C8            -34.5244068173       31.5171623930      -12.3554557564  MEMB      191             0.0000000000
     22130       191  CHL1      H8            -34.5386579298       30.4131185829      -12.2414693475  MEMB      191             0.0000000000
     22131       191  CHL1      C14           -34.8384271527       32.1898615778      -11.0469536719  MEMB      191             0.0000000000
     22132       191  CHL1      H14           -34.8966978921       33.2941980186      -11.2340167930  MEMB      191             0.0000000000
     22133       191  CHL1      C15           -33.7827286426       32.0170907912       -9.9437478707  MEMB      191             0.0000000000
     22134       191  CHL1      H15A          -33.4126296068       30.9682216733       -9.9528668827  MEMB      191             0.0000000000
     22135       191  CHL1      H15B          -32.9243447661       32.7078650907      -10.0673281819  MEMB      191             0.0000000000
     22136       191  CHL1      C16           -34.5556727342       32.2892098890       -8.6613940824  MEMB      191             0.0000000000
     22137       191  CHL1      H16A          -34.3418355745       31.4564562177       -7.9584488824  MEMB      191             0.0000000000
     22138       191  CHL1      H16B          -34.2438124204       33.2466705197       -8.1914966096  MEMB      191             0.0000000000
     22139       191  CHL1      C17           -36.0679208447       32.3619758799       -9.0581890511  MEMB      191             0.0000000000
     22140       191  CHL1      H17           -36.3092685102       33.4473568086       -9.1438810547  MEMB      191             0.0000000000
     22141       191  CHL1      C13           -36.1840520652       31.7833972046      -10.4813052761  MEMB      191             0.0000000000
     22142       191  CHL1      C18           -36.2822860301       30.2480241292      -10.3737919828  MEMB      191             0.0000000000
     22143       191  CHL1      H18A          -35.4232836818       29.8303475006       -9.8082226339  MEMB      191             0.0000000000
     22144       191  CHL1      H18B          -37.2237819368       29.9210314146       -9.8918180917  MEMB      191             0.0000000000
     22145       191  CHL1      H18C          -36.2864278503       29.8003498470      -11.3848476919  MEMB      191             0.0000000000
     22146       191  CHL1      C12           -37.2466126726       32.3561953343      -11.4528132462  MEMB      191             0.0000000000
     22147       191  CHL1      H12A          -38.2683644937       32.0289484687      -11.1799802549  MEMB      191             0.0000000000
     22148       191  CHL1      H12B          -37.2178599678       33.4638256810      -11.3911007845  MEMB      191             0.0000000000
     22149       191  CHL1      C11           -37.0076702761       31.8972116859      -12.9192270756  MEMB      191             0.0000000000
     22150       191  CHL1      H11A          -37.3653633431       30.8475830341      -12.9604433545  MEMB      191             0.0000000000
     22151       191  CHL1      H11B          -37.6529582616       32.4973745735      -13.5932355988  MEMB      191             0.0000000000
     22152       191  CHL1      C9            -35.5235263013       31.9579824039      -13.4174237544  MEMB      191             0.0000000000
     22153       191  CHL1      H9            -35.2814259439       33.0367708389      -13.5416186877  MEMB      191             0.0000000000
     22154       191  CHL1      C10           -35.2251026067       31.2619308634      -14.7817666137  MEMB      191             0.0000000000
     22155       191  CHL1      C19           -35.7545675764       29.8143232549      -14.7123359343  MEMB      191             0.0000000000
     22156       191  CHL1      H19A          -35.4045144496       29.3275180251      -13.7896138416  MEMB      191             0.0000000000
     22157       191  CHL1      H19B          -36.8636617787       29.8016840919      -14.7124246705  MEMB      191             0.0000000000
     22158       191  CHL1      H19C          -35.4330614571       29.2103183535      -15.5836664516  MEMB      191             0.0000000000
     22159       191  CHL1      C1            -35.9505010916       31.9639054260      -15.9645731437  MEMB      191             0.0000000000
     22160       191  CHL1      H1A           -37.0449040904       31.7911235725      -15.8623226816  MEMB      191             0.0000000000
     22161       191  CHL1      H1B           -35.7541390581       33.0517920239      -15.9314641936  MEMB      191             0.0000000000
     22162       191  CHL1      C2            -35.5029708003       31.4843070130      -17.3592672617  MEMB      191             0.0000000000
     22163       191  CHL1      H2A           -36.0254707556       32.0687892660      -18.1438797646  MEMB      191             0.0000000000
     22164       191  CHL1      H2B           -35.7757521531       30.4141438033      -17.4985605659  MEMB      191             0.0000000000
     22165       191  CHL1      C20           -36.9551730043       31.7666402102       -7.9701490756  MEMB      191             0.0000000000
     22166       191  CHL1      H20           -36.8335246870       30.6588762551       -7.9249123672  MEMB      191             0.0000000000
     22167       191  CHL1      C21           -38.4228533995       32.0976339625       -8.2630053313  MEMB      191             0.0000000000
     22168       191  CHL1      H21A          -38.5832380800       33.1854541641       -8.2022485515  MEMB      191             0.0000000000
     22169       191  CHL1      H21B          -39.0969517112       31.5959612185       -7.5400062333  MEMB      191             0.0000000000
     22170       191  CHL1      H21C          -38.7112427438       31.7619319154       -9.2686082629  MEMB      191             0.0000000000
     22171       191  CHL1      C22           -36.5456054279       32.3014619857       -6.5915193897  MEMB      191             0.0000000000
     22172       191  CHL1      H22A          -35.5762072028       31.8408903833       -6.2945023858  MEMB      191             0.0000000000
     22173       191  CHL1      H22B          -36.3683263762       33.3930556417       -6.6518682069  MEMB      191             0.0000000000
     22174       191  CHL1      C23           -37.5436337969       32.0146707303       -5.4727355129  MEMB      191             0.0000000000
     22175       191  CHL1      H23A          -38.3751775615       32.7496482240       -5.4689039628  MEMB      191             0.0000000000
     22176       191  CHL1      H23B          -37.9906680271       31.0042939124       -5.6032297400  MEMB      191             0.0000000000
     22177       191  CHL1      C24           -36.7663236365       32.0495235433       -4.1698342595  MEMB      191             0.0000000000
     22178       191  CHL1      H24A          -36.0760890209       31.1769482614       -4.1819840212  MEMB      191             0.0000000000
     22179       191  CHL1      H24B          -36.1148637691       32.9501792476       -4.1108682365  MEMB      191             0.0000000000
     22180       191  CHL1      C25           -37.5827893488       32.0417391301       -2.8877134549  MEMB      191             0.0000000000
     22181       191  CHL1      H25           -37.8888458073       33.0872081945       -2.6559859540  MEMB      191             0.0000000000
     22182       191  CHL1      C26           -38.8953083052       31.2709830632       -2.9179963281  MEMB      191             0.0000000000
     22183       191  CHL1      H26A          -39.6032991184       31.7480002127       -3.6288902475  MEMB      191             0.0000000000
     22184       191  CHL1      H26B          -38.7557796975       30.2058981045       -3.1899706767  MEMB      191             0.0000000000
     22185       191  CHL1      H26C          -39.3654418412       31.3304906485       -1.9130997748  MEMB      191             0.0000000000
     22186       191  CHL1      C27           -36.6472140694       31.5296707109       -1.8024587245  MEMB      191             0.0000000000
     22187       191  CHL1      H27A          -35.8193928441       32.2307121183       -1.6176947724  MEMB      191             0.0000000000
     22188       191  CHL1      H27B          -37.2075180699       31.4536990770       -0.8581448288  MEMB      191             0.0000000000
     22189       191  CHL1      H27C          -36.2024863400       30.5507820349       -2.0904637297  MEMB      191             0.0000000000
     22190       192  SOPE      N              35.2991862381      -32.8822680652      -18.7902981276  MEMB      192             0.0000000000
     22191       192  SOPE      HN1            34.5521683871      -32.5797646934      -18.1335052351  MEMB      192             0.0000000000
     22192       192  SOPE      HN2            35.8365820624      -33.6682638972      -18.3657727695  MEMB      192             0.0000000000
     22193       192  SOPE      HN3            36.0146965722      -32.1131964853      -18.8934297881  MEMB      192             0.0000000000
     22194       192  SOPE      C12            34.6847075089      -33.3979691372      -20.0660111025  MEMB      192             0.0000000000
     22195       192  SOPE      H12A           33.9398947539      -32.6752103898      -20.4438871559  MEMB      192             0.0000000000
     22196       192  SOPE      H12B           34.1389133989      -34.3229849032      -19.8127384450  MEMB      192             0.0000000000
     22197       192  SOPE      C11            35.7625366790      -33.7139590110      -21.1069178210  MEMB      192             0.0000000000
     22198       192  SOPE      H11A           36.6586302665      -34.1822068176      -20.6330784381  MEMB      192             0.0000000000
     22199       192  SOPE      H11B           36.1022453454      -32.7458572556      -21.5318837798  MEMB      192             0.0000000000
     22200       192  SOPE      P              34.8039111625      -36.0286282784      -21.9743077703  MEMB      192             0.0000000000
     22201       192  SOPE      O13            35.5587008768      -36.9511371017      -22.8637863754  MEMB      192             0.0000000000
     22202       192  SOPE      O14            33.3326948608      -35.9602960212      -22.1128746487  MEMB      192             0.0000000000
     22203       192  SOPE      O12            35.2542970273      -34.5218469282      -22.1658799965  MEMB      192             0.0000000000
     22204       192  SOPE      O11            35.2419094485      -36.2734491864      -20.4796040668  MEMB      192             0.0000000000
     22205       192  SOPE      C1             34.6274916503      -37.2752309692      -19.6812133723  MEMB      192             0.0000000000
     22206       192  SOPE      HA             35.3533136535      -37.5643063949      -18.8887472608  MEMB      192             0.0000000000
     22207       192  SOPE      HB             34.4016885892      -38.2048245689      -20.2582216476  MEMB      192             0.0000000000
     22208       192  SOPE      C2             33.3414668830      -36.7772282118      -18.9590079740  MEMB      192             0.0000000000
     22209       192  SOPE      HS             32.6599690890      -36.2658489111      -19.6795814187  MEMB      192             0.0000000000
     22210       192  SOPE      O21            33.7585836061      -35.9229056893      -17.8682132982  MEMB      192             0.0000000000
     22211       192  SOPE      C21            32.9695328430      -34.9145861187      -17.5521650354  MEMB      192             0.0000000000
     22212       192  SOPE      O22            32.2085719740      -34.3408077586      -18.3148872688  MEMB      192             0.0000000000
     22213       192  SOPE      C22            33.5564808727      -34.2478767973      -16.2937955841  MEMB      192             0.0000000000
     22214       192  SOPE      H2R            33.5320897155      -33.1664046691      -16.5456267440  MEMB      192             0.0000000000
     22215       192  SOPE      H2S            34.6057277732      -34.5609727455      -16.1266462655  MEMB      192             0.0000000000
     22216       192  SOPE      C3             32.5900159365      -38.0120594826      -18.4098608606  MEMB      192             0.0000000000
     22217       192  SOPE      HX             32.2380304577      -38.5617672612      -19.3015234581  MEMB      192             0.0000000000
     22218       192  SOPE      HY             31.6719841113      -37.7166776293      -17.8484068376  MEMB      192             0.0000000000
     22219       192  SOPE      O31            33.4920031876      -38.8605501399      -17.6511234317  MEMB      192             0.0000000000
     22220       192  SOPE      C31            33.6953181319      -38.3599612869      -16.4382785842  MEMB      192             0.0000000000
     22221       192  SOPE      O32            33.0314465736      -37.5226020103      -15.8742574777  MEMB      192             0.0000000000
     22222       192  SOPE      C32            34.9773582558      -38.8691527671      -15.8139279559  MEMB      192             0.0000000000
     22223       192  SOPE      H2X            35.4156335359      -39.6860362979      -16.4140922545  MEMB      192             0.0000000000
     22224       192  SOPE      H2Y            34.7020453801      -39.2467115579      -14.8037756275  MEMB      192             0.0000000000
     22225       192  SOPE      C23            32.7778817783      -34.3918611484      -14.9695791518  MEMB      192             0.0000000000
     22226       192  SOPE      H3R            32.9743835993      -35.3854752668      -14.5074832835  MEMB      192             0.0000000000
     22227       192  SOPE      H3S            31.6891063737      -34.3224378548      -15.1784242477  MEMB      192             0.0000000000
     22228       192  SOPE      C24            33.2350324534      -33.2353973293      -14.0760602415  MEMB      192             0.0000000000
     22229       192  SOPE      H4R            34.2975484108      -33.3871473388      -13.7793336281  MEMB      192             0.0000000000
     22230       192  SOPE      H4S            33.1691208168      -32.3360090189      -14.7257465733  MEMB      192             0.0000000000
     22231       192  SOPE      C25            32.3875146915      -32.8441776752      -12.8716102348  MEMB      192             0.0000000000
     22232       192  SOPE      H5R            32.3384619429      -31.7278560053      -12.8381069235  MEMB      192             0.0000000000
     22233       192  SOPE      H5S            31.3514311204      -33.2090569435      -12.9624684993  MEMB      192             0.0000000000
     22234       192  SOPE      C26            33.0040113837      -33.2901967932      -11.5573075029  MEMB      192             0.0000000000
     22235       192  SOPE      H6R            33.1410925750      -34.3925664535      -11.5550901163  MEMB      192             0.0000000000
     22236       192  SOPE      H6S            34.0156205828      -32.8291987299      -11.4488293340  MEMB      192             0.0000000000
     22237       192  SOPE      C27            32.1332989496      -32.8604729002      -10.3759326533  MEMB      192             0.0000000000
     22238       192  SOPE      H7R            32.1169105535      -31.7601549284      -10.3845951335  MEMB      192             0.0000000000
     22239       192  SOPE      H7S            31.0856047607      -33.1975108551      -10.5216340650  MEMB      192             0.0000000000
     22240       192  SOPE      C28            32.7516536776      -33.4240490559       -9.0900147138  MEMB      192             0.0000000000
     22241       192  SOPE      H8R            32.6397282300      -34.5217065390       -9.1713595272  MEMB      192             0.0000000000
     22242       192  SOPE      H8S            33.8402515157      -33.2284901432       -9.2028617402  MEMB      192             0.0000000000
     22243       192  SOPE      C29            32.2773335983      -33.0043418270       -7.7197007070  MEMB      192             0.0000000000
     22244       192  SOPE      H91            31.2092394255      -33.1618808709       -7.5046217389  MEMB      192             0.0000000000
     22245       192  SOPE      C210           33.0750468689      -32.4944438108       -6.7605083694  MEMB      192             0.0000000000
     22246       192  SOPE      H101           32.6616645267      -32.3256962571       -5.7528198608  MEMB      192             0.0000000000
     22247       192  SOPE      C211           34.5600867195      -32.2556070936       -6.8991074738  MEMB      192             0.0000000000
     22248       192  SOPE      H11R           34.9211982138      -31.6547480199       -6.0351131674  MEMB      192             0.0000000000
     22249       192  SOPE      H11S           34.7743356258      -31.6508497932       -7.8104709508  MEMB      192             0.0000000000
     22250       192  SOPE      C212           35.3866470893      -33.5565109883       -6.9688721844  MEMB      192             0.0000000000
     22251       192  SOPE      H12R           35.0532101085      -34.1976058308       -7.8137669064  MEMB      192             0.0000000000
     22252       192  SOPE      H12S           35.2147536967      -34.1414503673       -6.0414137513  MEMB      192             0.0000000000
     22253       192  SOPE      C213           36.8864595876      -33.2937426443       -7.1452935199  MEMB      192             0.0000000000
     22254       192  SOPE      H13R           37.0510762201      -32.5496172658       -7.9563629326  MEMB      192             0.0000000000
     22255       192  SOPE      H13S           37.3930872768      -34.2391081919       -7.4453290816  MEMB      192             0.0000000000
     22256       192  SOPE      C214           37.5496701799      -32.8181733984       -5.8551185644  MEMB      192             0.0000000000
     22257       192  SOPE      H14R           36.9564462915      -32.0136378080       -5.3704413962  MEMB      192             0.0000000000
     22258       192  SOPE      H14S           38.5543799858      -32.4437565814       -6.0967179821  MEMB      192             0.0000000000
     22259       192  SOPE      C215           37.7510544320      -33.9542374885       -4.8729487538  MEMB      192             0.0000000000
     22260       192  SOPE      H15R           38.2722447953      -34.8021404926       -5.3700390729  MEMB      192             0.0000000000
     22261       192  SOPE      H15S           36.7366163216      -34.2646142247       -4.5553957229  MEMB      192             0.0000000000
     22262       192  SOPE      C216           38.5080075414      -33.5806086036       -3.6141785439  MEMB      192             0.0000000000
     22263       192  SOPE      H16R           38.4049378603      -34.4103940272       -2.8979329275  MEMB      192             0.0000000000
     22264       192  SOPE      H16S           38.0637597694      -32.6797988095       -3.1441959267  MEMB      192             0.0000000000
     22265       192  SOPE      C217           40.0086456758      -33.5309424246       -3.7557573512  MEMB      192             0.0000000000
     22266       192  SOPE      H17R           40.3097773414      -32.7252366939       -4.4607945753  MEMB      192             0.0000000000
     22267       192  SOPE      H17S           40.3565317226      -34.4989919168       -4.1764630419  MEMB      192             0.0000000000
     22268       192  SOPE      C218           40.6359597545      -33.2818160922       -2.3910656372  MEMB      192             0.0000000000
     22269       192  SOPE      H18R           39.9425433597      -33.4770425440       -1.5477320083  MEMB      192             0.0000000000
     22270       192  SOPE      H18S           40.9479542311      -32.2223086082       -2.4236825128  MEMB      192             0.0000000000
     22271       192  SOPE      H18T           41.5359041013      -33.9003634051       -2.2046651428  MEMB      192             0.0000000000
     22272       192  SOPE      C33            35.9422049144      -37.6685037942      -15.6444338463  MEMB      192             0.0000000000
     22273       192  SOPE      H3X            35.3870504818      -36.7520184981      -15.3349382506  MEMB      192             0.0000000000
     22274       192  SOPE      H3Y            36.4229823202      -37.4474319117      -16.6225712919  MEMB      192             0.0000000000
     22275       192  SOPE      C34            37.0178904057      -37.9507697003      -14.5999118317  MEMB      192             0.0000000000
     22276       192  SOPE      H4X            38.0059776828      -37.5548465980      -14.9222288283  MEMB      192             0.0000000000
     22277       192  SOPE      H4Y            37.0919730407      -39.0487497381      -14.5392585667  MEMB      192             0.0000000000
     22278       192  SOPE      C35            36.6732738127      -37.4383350262      -13.2004052038  MEMB      192             0.0000000000
     22279       192  SOPE      H5X            37.4190718022      -37.8490787438      -12.4814572338  MEMB      192             0.0000000000
     22280       192  SOPE      H5Y            35.6676627109      -37.8425159100      -12.9402160372  MEMB      192             0.0000000000
     22281       192  SOPE      C36            36.6398138071      -35.9066613248      -13.1027397077  MEMB      192             0.0000000000
     22282       192  SOPE      H6X            35.6390922578      -35.5497184842      -13.4356404587  MEMB      192             0.0000000000
     22283       192  SOPE      H6Y            37.3977380107      -35.5063635865      -13.8179194708  MEMB      192             0.0000000000
     22284       192  SOPE      C37            36.9808592837      -35.3114075293      -11.7210684248  MEMB      192             0.0000000000
     22285       192  SOPE      H7X            36.9504184942      -34.2018200656      -11.8363940734  MEMB      192             0.0000000000
     22286       192  SOPE      H7Y            38.0220554531      -35.5864615122      -11.4458226792  MEMB      192             0.0000000000
     22287       192  SOPE      C38            36.0430443489      -35.6724423400      -10.5552559759  MEMB      192             0.0000000000
     22288       192  SOPE      H8X            34.9984326592      -35.3959739041      -10.8187430631  MEMB      192             0.0000000000
     22289       192  SOPE      H8Y            36.3361784541      -35.0508521939       -9.6773980122  MEMB      192             0.0000000000
     22290       192  SOPE      C39            36.0903452078      -37.1430789643      -10.1219426127  MEMB      192             0.0000000000
     22291       192  SOPE      H9X            37.1361186569      -37.5005462949      -10.0139820489  MEMB      192             0.0000000000
     22292       192  SOPE      H9Y            35.6022353680      -37.7519056411      -10.9135743124  MEMB      192             0.0000000000
     22293       192  SOPE      C310           35.2912917553      -37.4212327277       -8.8499266405  MEMB      192             0.0000000000
     22294       192  SOPE      H10X           34.7194943192      -38.3616367576       -9.0168793086  MEMB      192             0.0000000000
     22295       192  SOPE      H10Y           34.5692624227      -36.5937767094       -8.6832871269  MEMB      192             0.0000000000
     22296       192  SOPE      C311           36.0949304790      -37.5157525017       -7.5532430110  MEMB      192             0.0000000000
     22297       192  SOPE      H11X           36.4793106947      -36.4935585477       -7.3378912446  MEMB      192             0.0000000000
     22298       192  SOPE      H11Y           36.9638946985      -38.1932582774       -7.6645340796  MEMB      192             0.0000000000
     22299       192  SOPE      C312           35.1715235395      -37.9853570137       -6.4192957343  MEMB      192             0.0000000000
     22300       192  SOPE      H12X           34.7425745647      -38.9761044320       -6.6539096841  MEMB      192             0.0000000000
     22301       192  SOPE      H12Y           34.3525044099      -37.2405506831       -6.3456927573  MEMB      192             0.0000000000
     22302       192  SOPE      C313           35.7458999348      -38.0656313572       -5.0216609796  MEMB      192             0.0000000000
     22303       192  SOPE      H13X           36.5367660130      -38.8314543562       -4.9702413253  MEMB      192             0.0000000000
     22304       192  SOPE      H13Y           34.9359113502      -38.3308585003       -4.2998955915  MEMB      192             0.0000000000
     22305       192  SOPE      C314           36.3550799656      -36.7368378493       -4.6860055369  MEMB      192             0.0000000000
     22306       192  SOPE      H14X           35.6040489788      -35.9497192137       -4.9175418452  MEMB      192             0.0000000000
     22307       192  SOPE      H14Y           37.2282996007      -36.6063904913       -5.3636080775  MEMB      192             0.0000000000
     22308       192  SOPE      C315           36.8524358337      -36.6532458951       -3.2535519391  MEMB      192             0.0000000000
     22309       192  SOPE      H15X           37.8876335003      -36.2668009326       -3.2858490762  MEMB      192             0.0000000000
     22310       192  SOPE      H15Y           36.9275727928      -37.6817274568       -2.8644065082  MEMB      192             0.0000000000
     22311       192  SOPE      C316           35.9525746854      -35.7708393853       -2.3862373057  MEMB      192             0.0000000000
     22312       192  SOPE      H16X           35.1605753347      -36.3929973473       -1.9184749803  MEMB      192             0.0000000000
     22313       192  SOPE      H16Y           35.4383968026      -35.0530422062       -3.0654885768  MEMB      192             0.0000000000
     22314       192  SOPE      C317           36.6336292712      -34.8858348768       -1.3284920582  MEMB      192             0.0000000000
     22315       192  SOPE      H17X           35.8812428668      -34.6779041426       -0.5796962427  MEMB      192             0.0000000000
     22316       192  SOPE      H17Y           36.8516925436      -33.8884393151       -1.7625071093  MEMB      192             0.0000000000
     22317       192  SOPE      C318           37.8263130057      -35.3942249972       -0.5282100897  MEMB      192             0.0000000000
     22318       192  SOPE      H18X           38.5552078748      -35.9324401569       -1.1678088281  MEMB      192             0.0000000000
     22319       192  SOPE      H18Y           37.4833907387      -36.0619644456        0.2906602262  MEMB      192             0.0000000000
     22320       192  SOPE      H18Z           38.3243740106      -34.5240871515       -0.0511863349  MEMB      192             0.0000000000
     22321       193  TIP3      OH2             2.4433601482        0.9399224605       19.4971750979  TIP3      1               0.0000000000
     22322       193  TIP3      H1              2.4290450001        1.1738523975       20.4425883210  TIP3      1               0.0000000000
     22323       193  TIP3      H2              1.5060087823        1.0753887729       19.2813778856  TIP3      1               0.0000000000
     22324       194  TIP3      OH2            -3.5808084275        1.1590683489       20.6440111354  TIP3      2               0.0000000000
     22325       194  TIP3      H1             -3.2206738688        2.0114215694       20.9081501247  TIP3      2               0.0000000000
     22326       194  TIP3      H2             -2.9544905963        0.8784338993       19.9754445167  TIP3      2               0.0000000000
     22327       195  TIP3      OH2             1.1597616931        1.8453288423       21.9031700002  TIP3      3               0.0000000000
     22328       195  TIP3      H1              0.2627036395        1.5135166713       22.0335114049  TIP3      3               0.0000000000
     22329       195  TIP3      H2              0.9900454390        2.7625403060       21.6398627001  TIP3      3               0.0000000000
     22330       196  TIP3      OH2             4.2985510006        8.5190707858       20.2013152642  TIP3      4               0.0000000000
     22331       196  TIP3      H1              4.9102010556        7.7751448655       20.3180172777  TIP3      4               0.0000000000
     22332       196  TIP3      H2              4.9010679369        9.2630403992       20.2974363237  TIP3      4               0.0000000000
     22333       197  TIP3      OH2             0.8742988542      -14.4089242955       20.6377381093  TIP3      5               0.0000000000
     22334       197  TIP3      H1              0.4578785153      -14.3632299735       21.5021537451  TIP3      5               0.0000000000
     22335       197  TIP3      H2              1.7908431682      -14.6415336054       20.8692707925  TIP3      5               0.0000000000
     22336       198  TIP3      OH2            12.6404978495       10.8657828126       19.0431039148  TIP3      6               0.0000000000
     22337       198  TIP3      H1             12.2843888457       11.7275023068       19.3463163877  TIP3      6               0.0000000000
     22338       198  TIP3      H2             12.8415146554       11.0363685813       18.1198266861  TIP3      6               0.0000000000
     22339       199  TIP3      OH2            11.6088355916        9.2266373459       21.7036618936  TIP3      7               0.0000000000
     22340       199  TIP3      H1             11.3743403059        8.5766053691       22.3671646093  TIP3      7               0.0000000000
     22341       199  TIP3      H2             11.5714978073        8.6637707711       20.8916376400  TIP3      7               0.0000000000
     22342       200  TIP3      OH2             9.5705711487       11.0173741400       21.6130300814  TIP3      8               0.0000000000
     22343       200  TIP3      H1             10.2466759295       10.3140561407       21.6295176123  TIP3      8               0.0000000000
     22344       200  TIP3      H2              9.0920513631       10.7982628477       20.7847004380  TIP3      8               0.0000000000
     22345       201  TIP3      OH2            11.6025226658        7.4389247278       19.7581434397  TIP3      9               0.0000000000
     22346       201  TIP3      H1             11.2591687929        6.6309404127       20.1880337525  TIP3      9               0.0000000000
     22347       201  TIP3      H2             11.6652020927        7.1702026121       18.8327708640  TIP3      9               0.0000000000
     22348       202  TIP3      OH2            -6.1133963716      -11.1761554666       20.4065785196  TIP3      10              0.0000000000
     22349       202  TIP3      H1             -6.3462794414      -11.6049898020       21.2441161371  TIP3      10              0.0000000000
     22350       202  TIP3      H2             -5.1755947216      -10.9982184563       20.5134709032  TIP3      10              0.0000000000
     22351       203  TIP3      OH2            -4.4713031931      -15.4058571596       20.2376502713  TIP3      11              0.0000000000
     22352       203  TIP3      H1             -4.8251259698      -15.1415233229       21.1074616700  TIP3      11              0.0000000000
     22353       203  TIP3      H2             -5.2723157074      -15.2928941103       19.6959508479  TIP3      11              0.0000000000
     22354       204  TIP3      OH2             5.6718021985       18.3162159168       19.7796533402  TIP3      12              0.0000000000
     22355       204  TIP3      H1              4.9364996994       18.1086408591       19.1840693336  TIP3      12              0.0000000000
     22356       204  TIP3      H2              6.1528760510       19.0287371186       19.2910039221  TIP3      12              0.0000000000
     22357       205  TIP3      OH2             0.9448255706       15.5229314482       21.4986423497  TIP3      13              0.0000000000
     22358       205  TIP3      H1              0.0985369447       15.0464661464       21.6833451425  TIP3      13              0.0000000000
     22359       205  TIP3      H2              0.6947599915       16.4119396694       21.7748021939  TIP3      13              0.0000000000
     22360       206  TIP3      OH2             4.2546351819       14.2474578150       21.1428701170  TIP3      14              0.0000000000
     22361       206  TIP3      H1              3.4756310993       14.7193235090       20.8058486520  TIP3      14              0.0000000000
     22362       206  TIP3      H2              4.9018353584       14.3612586577       20.4319683977  TIP3      14              0.0000000000
     22363       207  TIP3      OH2             3.8456630324       18.1845682178       21.9068683734  TIP3      15              0.0000000000
     22364       207  TIP3      H1              4.5822103094       18.4060763222       21.2882731407  TIP3      15              0.0000000000
     22365       207  TIP3      H2              3.6241851554       17.2804513396       21.6527251145  TIP3      15              0.0000000000
     22366       208  TIP3      OH2            -2.4708975973      -20.0696013248       19.7387519643  TIP3      16              0.0000000000
     22367       208  TIP3      H1             -3.3452172164      -20.2668593406       20.0980457921  TIP3      16              0.0000000000
     22368       208  TIP3      H2             -1.8647224762      -20.4097267914       20.4258413880  TIP3      16              0.0000000000
     22369       209  TIP3      OH2             9.7383617115      -16.7983320640       20.0019389299  TIP3      17              0.0000000000
     22370       209  TIP3      H1             10.5485891796      -16.4593494148       19.6081534014  TIP3      17              0.0000000000
     22371       209  TIP3      H2              9.9459136895      -16.7066447477       20.9419201866  TIP3      17              0.0000000000
     22372       210  TIP3      OH2             6.3971173800      -20.0779041838       19.8167218367  TIP3      18              0.0000000000
     22373       210  TIP3      H1              7.1676838533      -19.8109715243       19.2884622700  TIP3      18              0.0000000000
     22374       210  TIP3      H2              6.6817851153      -20.8636149908       20.3154741415  TIP3      18              0.0000000000
     22375       211  TIP3      OH2            18.8282349451      -11.6241552119       20.3990462763  TIP3      19              0.0000000000
     22376       211  TIP3      H1             19.6150368216      -12.0923425795       20.0802054360  TIP3      19              0.0000000000
     22377       211  TIP3      H2             18.2252918677      -12.3544686500       20.6106729866  TIP3      19              0.0000000000
     22378       212  TIP3      OH2            18.6389290898       -0.7598479810       20.6648324753  TIP3      20              0.0000000000
     22379       212  TIP3      H1             19.1103421066       -1.5114611760       20.2627939210  TIP3      20              0.0000000000
     22380       212  TIP3      H2             18.7844497862       -0.0509804918       20.0219316259  TIP3      20              0.0000000000
     22381       213  TIP3      OH2            19.9649363644       -5.2137856944       20.0553674962  TIP3      21              0.0000000000
     22382       213  TIP3      H1             19.1139290375       -5.3587465046       19.6176560322  TIP3      21              0.0000000000
     22383       213  TIP3      H2             20.2408669086       -4.3765710256       19.6189448805  TIP3      21              0.0000000000
     22384       214  TIP3      OH2            14.0963940952       17.6708415200       19.9726255545  TIP3      22              0.0000000000
     22385       214  TIP3      H1             14.5939703435       17.3589143994       20.7416249204  TIP3      22              0.0000000000
     22386       214  TIP3      H2             14.7145797731       17.3850824137       19.2581238293  TIP3      22              0.0000000000
     22387       215  TIP3      OH2            11.0341010925       16.8009770722       21.0078015289  TIP3      23              0.0000000000
     22388       215  TIP3      H1             11.7952111641       17.3393446942       21.2670496360  TIP3      23              0.0000000000
     22389       215  TIP3      H2             10.9006984999       17.1451697159       20.0992088745  TIP3      23              0.0000000000
     22390       216  TIP3      OH2            15.0174063618      -19.5324738256       19.7837424509  TIP3      24              0.0000000000
     22391       216  TIP3      H1             15.4117795515      -20.1373665244       20.4248098358  TIP3      24              0.0000000000
     22392       216  TIP3      H2             14.1637676357      -19.9580156242       19.5724363878  TIP3      24              0.0000000000
     22393       217  TIP3      OH2            15.3783475770      -16.1535918827       21.8936665107  TIP3      25              0.0000000000
     22394       217  TIP3      H1             16.0971157776      -15.5408482481       21.6986172397  TIP3      25              0.0000000000
     22395       217  TIP3      H2             15.0687117339      -16.3133305700       20.9757700319  TIP3      25              0.0000000000
     22396       218  TIP3      OH2            -7.7234607019       19.7276955043       19.3857833305  TIP3      26              0.0000000000
     22397       218  TIP3      H1             -8.2946307987       20.4716213507       19.1108035384  TIP3      26              0.0000000000
     22398       218  TIP3      H2             -6.8906382061       20.1629281582       19.6222975217  TIP3      26              0.0000000000
     22399       219  TIP3      OH2           -23.9224238240       -6.9477802898       18.4110468981  TIP3      27            -26.4800000000
     22400       219  TIP3      H1            -23.4417439824       -7.7561656159       18.1425516442  TIP3      27            -25.7500000000
     22401       219  TIP3      H2            -23.6626664178       -6.2646362790       17.7885623668  TIP3      27            -27.1600000000
     22402       220  TIP3      OH2           -22.2681747189       -2.8729468213       19.6811014632  TIP3      28              0.0000000000
     22403       220  TIP3      H1            -21.7893440027       -3.6446968189       20.0107544857  TIP3      28              0.0000000000
     22404       220  TIP3      H2            -21.6974412397       -2.6046734861       18.9456006758  TIP3      28              0.0000000000
     22405       221  TIP3      OH2           -26.6729332816       -3.9853385361       20.6421296664  TIP3      29              0.0000000000
     22406       221  TIP3      H1            -27.4292224794       -4.1756852996       20.0854480230  TIP3      29              0.0000000000
     22407       221  TIP3      H2            -25.9391693724       -3.9691280488       19.9880560627  TIP3      29              0.0000000000
     22408       222  TIP3      OH2           -24.2023723700       -6.2845678594       20.9857916207  TIP3      30              0.0000000000
     22409       222  TIP3      H1            -24.5364002858       -5.4018774740       20.7579970518  TIP3      30              0.0000000000
     22410       222  TIP3      H2            -24.1047458393       -6.6931948331       20.0930705620  TIP3      30              0.0000000000
     22411       223  TIP3      OH2           -16.9241683181       17.9178509747       20.6598765931  TIP3      31              0.0000000000
     22412       223  TIP3      H1            -16.6744653645       18.7912254179       20.3052442393  TIP3      31              0.0000000000
     22413       223  TIP3      H2            -17.3696044266       17.5312230575       19.8862531986  TIP3      31              0.0000000000
     22414       224  TIP3      OH2           -17.7842413913       22.9833327772       19.1677613268  TIP3      32              0.0000000000
     22415       224  TIP3      H1            -18.6433604590       23.4443869771       19.0563419708  TIP3      32              0.0000000000
     22416       224  TIP3      H2            -17.8234139507       22.7463536786       20.0968282586  TIP3      32              0.0000000000
     22417       225  TIP3      OH2            12.4147318720      -20.9189936072       19.7646292079  TIP3      33              0.0000000000
     22418       225  TIP3      H1             12.8740524917      -21.7709658795       19.7943590371  TIP3      33              0.0000000000
     22419       225  TIP3      H2             11.5948011894      -21.1559110764       19.3133011077  TIP3      33              0.0000000000
     22420       226  TIP3      OH2            24.0120949190      -16.2603773996       21.8843003891  TIP3      34              0.0000000000
     22421       226  TIP3      H1             23.7820273796      -16.3911691847       20.9514137715  TIP3      34              0.0000000000
     22422       226  TIP3      H2             24.4476794704      -17.1057454657       22.0873997165  TIP3      34              0.0000000000
     22423       227  TIP3      OH2            22.8923623349      -13.0025148009       19.8840878328  TIP3      35              0.0000000000
     22424       227  TIP3      H1             22.0154276485      -12.7740169854       20.1985250702  TIP3      35              0.0000000000
     22425       227  TIP3      H2             23.1135883301      -12.2708007367       19.2900588330  TIP3      35              0.0000000000
     22426       228  TIP3      OH2            28.8219867049       -1.4072201425       21.8599159952  TIP3      36              0.0000000000
     22427       228  TIP3      H1             29.2552590136       -0.5416078826       21.8528197620  TIP3      36              0.0000000000
     22428       228  TIP3      H2             29.5517875500       -2.0122767409       21.6971062718  TIP3      36              0.0000000000
     22429       229  TIP3      OH2            27.2038329370       -2.8957804872       20.0422034360  TIP3      37              0.0000000000
     22430       229  TIP3      H1             27.4812052699       -2.4366596736       20.8525906240  TIP3      37              0.0000000000
     22431       229  TIP3      H2             27.4098678104       -2.1688579170       19.4283460892  TIP3      37              0.0000000000
     22432       230  TIP3      OH2            14.2472312828       21.9656988966       19.9355047165  TIP3      38              0.0000000000
     22433       230  TIP3      H1             14.6768077758       22.7088818416       19.4736444778  TIP3      38              0.0000000000
     22434       230  TIP3      H2             14.4176746256       22.1770647195       20.8560704821  TIP3      38              0.0000000000
     22435       231  TIP3      OH2            24.4287191400       14.6132452392       20.7862891396  TIP3      39              0.0000000000
     22436       231  TIP3      H1             25.0625216295       14.7007313517       21.5395209661  TIP3      39              0.0000000000
     22437       231  TIP3      H2             24.5774212912       15.4474798768       20.3108653673  TIP3      39              0.0000000000
     22438       232  TIP3      OH2           -24.2711712066       12.3173462136       19.5775605865  TIP3      40              0.0000000000
     22439       232  TIP3      H1            -23.6580900633       12.7479066693       18.9663749745  TIP3      40              0.0000000000
     22440       232  TIP3      H2            -24.3417678217       13.0052443021       20.2486753381  TIP3      40              0.0000000000
     22441       233  TIP3      OH2             1.1923750672       32.1241429020       20.2612263210  TIP3      41              0.0000000000
     22442       233  TIP3      H1              0.6864533685       32.7118673601       19.6702272233  TIP3      41              0.0000000000
     22443       233  TIP3      H2              2.0507093102       32.5839865331       20.2657514650  TIP3      41              0.0000000000
     22444       234  TIP3      OH2             4.0819321061       32.2897515474       20.5198311610  TIP3      42              0.0000000000
     22445       234  TIP3      H1              3.7902844877       31.3792513872       20.7037225017  TIP3      42              0.0000000000
     22446       234  TIP3      H2              4.6450459445       32.1218950792       19.7438972056  TIP3      42              0.0000000000
     22447       235  TIP3      OH2             2.1784251985       27.3642317766       18.7701877120  TIP3      43              0.0000000000
     22448       235  TIP3      H1              1.3181932591       27.0953674015       18.4361775830  TIP3      43              0.0000000000
     22449       235  TIP3      H2              2.0624992477       28.3388416279       18.8023241883  TIP3      43              0.0000000000
     22450       236  TIP3      OH2           -27.5172614627       18.8819462072       19.9463882608  TIP3      44              0.0000000000
     22451       236  TIP3      H1            -28.1983918158       18.1890666584       19.9284131215  TIP3      44              0.0000000000
     22452       236  TIP3      H2            -26.7167130539       18.4621148818       19.5845208969  TIP3      44              0.0000000000
     22453       237  TIP3      OH2            18.5845006218       32.2551118531       21.2785389499  TIP3      45            -32.2000000000
     22454       237  TIP3      H1             18.4715171347       31.6862933175       22.0584634151  TIP3      45            -32.7200000000
     22455       237  TIP3      H2             19.5349641456       32.0748665088       21.1104987844  TIP3      45            -32.7400000000
     22456       238  TIP3      OH2            19.8003482635       28.0461611298       20.0987061203  TIP3      46              0.0000000000
     22457       238  TIP3      H1             19.3861857550       28.8206698738       19.6561905150  TIP3      46              0.0000000000
     22458       238  TIP3      H2             20.5407562335       27.8611256177       19.5032969390  TIP3      46              0.0000000000
     22459       239  TIP3      OH2            17.2897752293       33.3050106037       19.2319472293  TIP3      47              0.0000000000
     22460       239  TIP3      H1             16.3802622265       33.3549985938       19.5781898213  TIP3      47              0.0000000000
     22461       239  TIP3      H2             17.7981189623       33.1184937231       20.0455675308  TIP3      47              0.0000000000
     22462       240  TIP3      OH2            16.2131257943       28.3619824255       19.1662118784  TIP3      48              0.0000000000
     22463       240  TIP3      H1             15.6114088977       28.6864565863       18.4804035169  TIP3      48              0.0000000000
     22464       240  TIP3      H2             16.4096797597       29.1895188064       19.6251405253  TIP3      48              0.0000000000
     22465       241  TIP3      OH2            21.0431768785       31.4724441762       20.8800286219  TIP3      49              0.0000000000
     22466       241  TIP3      H1             21.8358900133       32.0677770380       20.9196635622  TIP3      49              0.0000000000
     22467       241  TIP3      H2             21.0434416353       31.2495268135       19.9385339247  TIP3      49              0.0000000000
     22468       242  TIP3      OH2            24.7097807834      -31.6785941374       20.7928271106  TIP3      50              0.0000000000
     22469       242  TIP3      H1             25.0854105515      -32.4487914656       20.3097804749  TIP3      50              0.0000000000
     22470       242  TIP3      H2             23.9044332788      -31.5663371026       20.2551511655  TIP3      50              0.0000000000
     22471       243  TIP3      OH2           -25.1304117522      -33.3682962132       22.5605992345  TIP3      51              0.0000000000
     22472       243  TIP3      H1            -25.0396150352      -32.5364235160       22.0680795260  TIP3      51              0.0000000000
     22473       243  TIP3      H2            -25.6403290653      -33.9210673542       21.9572217712  TIP3      51              0.0000000000
     22474       244  TIP3      OH2           -24.2494135360      -31.2373617054       20.3924256348  TIP3      52              0.0000000000
     22475       244  TIP3      H1            -23.7135416061      -30.5283688721       20.0081391903  TIP3      52              0.0000000000
     22476       244  TIP3      H2            -24.2512740586      -31.9168921962       19.6913356469  TIP3      52              0.0000000000
     22477       245  TIP3      OH2            -0.6813111378        6.2065071379      -20.3559811582  TIP3      53              0.0000000000
     22478       245  TIP3      H1             -1.5141422500        6.5343183345      -19.9855327205  TIP3      53              0.0000000000
     22479       245  TIP3      H2             -0.7997535661        6.4686666227      -21.2989866663  TIP3      53              0.0000000000
     22480       246  TIP3      OH2             0.9258110899        2.3387720501      -20.3236872973  TIP3      54              0.0000000000
     22481       246  TIP3      H1              0.3457645952        2.8403400911      -19.6951443483  TIP3      54              0.0000000000
     22482       246  TIP3      H2              1.7990498811        2.6864425341      -20.1032638508  TIP3      54              0.0000000000
     22483       247  TIP3      OH2             6.6818432926       -1.4928295508      -18.8868872403  TIP3      55              0.0000000000
     22484       247  TIP3      H1              6.4026033688       -0.6223293624      -18.5563685826  TIP3      55              0.0000000000
     22485       247  TIP3      H2              5.8866112160       -2.0110596524      -18.6322141202  TIP3      55              0.0000000000
     22486       248  TIP3      OH2             2.5627038774       -2.8632063553      -21.6195893098  TIP3      56              0.0000000000
     22487       248  TIP3      H1              2.4709724927       -3.8311147571      -21.5538299226  TIP3      56              0.0000000000
     22488       248  TIP3      H2              3.5200641893       -2.7224330383      -21.5743045355  TIP3      56              0.0000000000
     22489       249  TIP3      OH2             6.0149768294       -2.2254653174      -21.4881081318  TIP3      57              0.0000000000
     22490       249  TIP3      H1              5.5627432904       -1.3821648682      -21.5509534123  TIP3      57              0.0000000000
     22491       249  TIP3      H2              6.3342255544       -2.1744564505      -20.5688826737  TIP3      57              0.0000000000
     22492       250  TIP3      OH2            -4.4850123926        8.2974459330      -19.6115319415  TIP3      58              0.0000000000
     22493       250  TIP3      H1             -5.3449273196        7.9853380416      -19.2816931839  TIP3      58              0.0000000000
     22494       250  TIP3      H2             -4.5350266420        9.2329454319      -19.3378230092  TIP3      58              0.0000000000
     22495       251  TIP3      OH2            -1.9935707210      -17.2385076363      -20.2588185379  TIP3      59              0.0000000000
     22496       251  TIP3      H1             -1.2326741343      -16.7916079090      -20.6580453685  TIP3      59              0.0000000000
     22497       251  TIP3      H2             -2.2613592753      -17.8596481205      -20.9532258985  TIP3      59              0.0000000000
     22498       252  TIP3      OH2            -3.4460580079      -19.6074875178      -19.7735384531  TIP3      60              0.0000000000
     22499       252  TIP3      H1             -3.6945727178      -18.9014674209      -19.1504649148  TIP3      60              0.0000000000
     22500       252  TIP3      H2             -2.5065622391      -19.7513086952      -19.5877743646  TIP3      60              0.0000000000
     22501       253  TIP3      OH2            19.7390697912      -10.6428705054      -18.7202495742  TIP3      61              0.0000000000
     22502       253  TIP3      H1             19.9340206515      -10.9825831419      -19.5933317689  TIP3      61              0.0000000000
     22503       253  TIP3      H2             19.8821378756       -9.6965589867      -18.8285199131  TIP3      61              0.0000000000
     22504       254  TIP3      OH2            16.3847829137       -7.0975963758      -20.4158489187  TIP3      62              0.0000000000
     22505       254  TIP3      H1             15.6683710898       -7.2772501384      -21.0593443325  TIP3      62              0.0000000000
     22506       254  TIP3      H2             16.5458934140       -6.1662623370      -20.5945563033  TIP3      62              0.0000000000
     22507       255  TIP3      OH2             5.7539399652       18.8042205599      -20.8945015155  TIP3      63              0.0000000000
     22508       255  TIP3      H1              5.2593231444       19.5769480157      -20.5942714572  TIP3      63              0.0000000000
     22509       255  TIP3      H2              5.7800407919       18.9065723472      -21.8534296137  TIP3      63              0.0000000000
     22510       256  TIP3      OH2             9.8625086563       18.8152012170      -19.0369924880  TIP3      64              0.0000000000
     22511       256  TIP3      H1              9.5606010353       18.9314109260      -19.9643151298  TIP3      64              0.0000000000
     22512       256  TIP3      H2              9.0767793665       18.3058914192      -18.7319290524  TIP3      64              0.0000000000
     22513       257  TIP3      OH2           -22.8072411964       -2.5727717756      -19.3609356097  TIP3      65              0.0000000000
     22514       257  TIP3      H1            -23.5420596560       -2.4436203501      -18.7294958642  TIP3      65              0.0000000000
     22515       257  TIP3      H2            -22.0563943534       -2.1761808492      -18.8874291424  TIP3      65              0.0000000000
     22516       258  TIP3      OH2           -18.2484157679       -4.3403900265      -16.6029976599  TIP3      66              0.0000000000
     22517       258  TIP3      H1            -18.4970541877       -3.7211315193      -17.2853800213  TIP3      66              0.0000000000
     22518       258  TIP3      H2            -18.1612093158       -5.1572325351      -17.1062614864  TIP3      66              0.0000000000
     22519       259  TIP3      OH2           -20.5044516705        0.9516906465      -19.6245065432  TIP3      67              0.0000000000
     22520       259  TIP3      H1            -20.0631181250        1.4832255963      -18.9526759837  TIP3      67              0.0000000000
     22521       259  TIP3      H2            -20.4452581947        0.0469232185      -19.2522020842  TIP3      67              0.0000000000
     22522       260  TIP3      OH2           -12.6348196192      -20.0085221883      -20.4898739026  TIP3      68              0.0000000000
     22523       260  TIP3      H1            -11.9935109239      -20.7195625322      -20.5363859744  TIP3      68              0.0000000000
     22524       260  TIP3      H2            -12.0400721748      -19.2673150433      -20.2446783463  TIP3      68              0.0000000000
     22525       261  TIP3      OH2            14.0489993489       16.1460306296      -21.9118883756  TIP3      69              0.0000000000
     22526       261  TIP3      H1             13.4535787130       15.5663077540      -21.4239724349  TIP3      69              0.0000000000
     22527       261  TIP3      H2             14.2420412236       16.8481628543      -21.2681295303  TIP3      69              0.0000000000
     22528       262  TIP3      OH2            17.4854197632       16.2465697064      -20.0046338609  TIP3      70              0.0000000000
     22529       262  TIP3      H1             18.1508005278       16.6149129430      -19.3776587965  TIP3      70              0.0000000000
     22530       262  TIP3      H2             17.3001006456       15.3944872326      -19.6072433420  TIP3      70              0.0000000000
     22531       263  TIP3      OH2           -21.3756951100       12.8061547883      -20.9741298186  TIP3      71              0.0000000000
     22532       263  TIP3      H1            -22.1259556676       12.5131960531      -20.4221801127  TIP3      71              0.0000000000
     22533       263  TIP3      H2            -21.2845919018       13.7244136212      -20.7085617372  TIP3      71              0.0000000000
     22534       264  TIP3      OH2           -21.2692083247        9.9192392918      -19.1787847094  TIP3      72              0.0000000000
     22535       264  TIP3      H1            -22.1233106787        9.5056055253      -19.3765593756  TIP3      72              0.0000000000
     22536       264  TIP3      H2            -21.4793055697       10.8658596001      -19.1452314066  TIP3      72              0.0000000000
     22537       265  TIP3      OH2             7.3247490716      -22.4159932522      -20.6402902737  TIP3      73              0.0000000000
     22538       265  TIP3      H1              8.1883586703      -22.5967768179      -20.1946702139  TIP3      73              0.0000000000
     22539       265  TIP3      H2              7.3206303344      -21.4498874126      -20.5895770260  TIP3      73              0.0000000000
     22540       266  TIP3      OH2            11.7666240740      -23.6859242095      -20.3076154607  TIP3      74              0.0000000000
     22541       266  TIP3      H1             11.4075321530      -24.5850576714      -20.2156482325  TIP3      74              0.0000000000
     22542       266  TIP3      H2             12.7134599896      -23.8764278793      -20.3261979563  TIP3      74              0.0000000000
     22543       267  TIP3      OH2           -24.8710622802      -11.0152461125      -20.2663032634  TIP3      75              0.0000000000
     22544       267  TIP3      H1            -24.3068517402      -10.5201388406      -19.6488932229  TIP3      75              0.0000000000
     22545       267  TIP3      H2            -25.3691384151      -10.2578408436      -20.6455551937  TIP3      75              0.0000000000
     22546       268  TIP3      OH2           -26.2055802753       -8.7767577453      -20.1073460067  TIP3      76              0.0000000000
     22547       268  TIP3      H1            -27.1283296586       -9.0490200875      -19.9033694307  TIP3      76              0.0000000000
     22548       268  TIP3      H2            -25.7810973449       -8.9982309156      -19.2617677422  TIP3      76              0.0000000000
     22549       269  TIP3      OH2            -6.5145567853      -26.6925711080      -19.4663151994  TIP3      77              0.0000000000
     22550       269  TIP3      H1             -5.9544045436      -26.3295304062      -20.1733865410  TIP3      77              0.0000000000
     22551       269  TIP3      H2             -6.7292368218      -27.5850147006      -19.7656425059  TIP3      77              0.0000000000
     22552       270  TIP3      OH2           -10.7931371241      -24.2663421855      -20.9868189969  TIP3      78              0.0000000000
     22553       270  TIP3      H1            -10.4144092950      -24.9119174437      -20.3770240423  TIP3      78              0.0000000000
     22554       270  TIP3      H2            -10.2085177502      -23.5052105080      -20.7739110647  TIP3      78              0.0000000000
     22555       271  TIP3      OH2            -7.4073165206      -24.3822094618      -22.2821762005  TIP3      79              0.0000000000
     22556       271  TIP3      H1             -6.9195528617      -24.6970968601      -23.0657450026  TIP3      79              0.0000000000
     22557       271  TIP3      H2             -8.1529571697      -24.9916225221      -22.3003676510  TIP3      79              0.0000000000
     22558       272  TIP3      OH2            -8.5538357215      -22.6339100951      -20.3544252919  TIP3      80              0.0000000000
     22559       272  TIP3      H1             -8.5490810732      -23.3588470320      -19.6973717532  TIP3      80              0.0000000000
     22560       272  TIP3      H2             -7.8547916843      -22.9432767641      -20.9658796814  TIP3      80              0.0000000000
     22561       273  TIP3      OH2            17.4086421038      -13.4426203060      -19.5228074511  TIP3      81              0.0000000000
     22562       273  TIP3      H1             18.0155441390      -14.0559391279      -19.9430138988  TIP3      81              0.0000000000
     22563       273  TIP3      H2             16.6773054595      -14.0400855630      -19.2919591825  TIP3      81              0.0000000000
     22564       274  TIP3      OH2            19.0793539742      -16.5504798970      -19.4864032110  TIP3      82              0.0000000000
     22565       274  TIP3      H1             18.3436357712      -16.7239296039      -18.8538761388  TIP3      82              0.0000000000
     22566       274  TIP3      H2             18.6348412472      -16.7406681653      -20.3149238365  TIP3      82              0.0000000000
     22567       275  TIP3      OH2            23.2070924762      -14.7087833451      -20.8407832163  TIP3      83              0.0000000000
     22568       275  TIP3      H1             24.0518528732      -14.9341724724      -20.4322552251  TIP3      83              0.0000000000
     22569       275  TIP3      H2             22.5853069656      -14.7129263841      -20.0864763095  TIP3      83              0.0000000000
     22570       276  TIP3      OH2           -16.5650686410      -22.5437158273      -20.8945406960  TIP3      84              0.0000000000
     22571       276  TIP3      H1            -16.1703969014      -23.4264701323      -20.8685678796  TIP3      84              0.0000000000
     22572       276  TIP3      H2            -16.9193788455      -22.5157511948      -19.9999769728  TIP3      84              0.0000000000
     22573       277  TIP3      OH2           -19.1093555058      -23.7589493219      -19.1005773433  TIP3      85              0.0000000000
     22574       277  TIP3      H1            -18.6620722341      -23.2974237461      -18.3886728434  TIP3      85              0.0000000000
     22575       277  TIP3      H2            -19.9276220178      -23.2528380202      -19.2116933881  TIP3      85              0.0000000000
     22576       278  TIP3      OH2           -15.6962192527      -28.1045137410      -19.6443622143  TIP3      86              0.0000000000
     22577       278  TIP3      H1            -15.2135372147      -28.2588855973      -20.4637340474  TIP3      86              0.0000000000
     22578       278  TIP3      H2            -16.6006422862      -27.9898380706      -19.9765339951  TIP3      86              0.0000000000
     22579       279  TIP3      OH2            27.5958998740       12.2789862737      -21.7896633774  TIP3      87              0.0000000000
     22580       279  TIP3      H1             27.5559723521       11.3473937170      -21.5297036052  TIP3      87              0.0000000000
     22581       279  TIP3      H2             26.9078671180       12.2763643129      -22.4762679307  TIP3      87              0.0000000000
     22582       280  TIP3      OH2            26.8809377841       14.2615704671      -19.7428550127  TIP3      88              0.0000000000
     22583       280  TIP3      H1             27.4183930439       13.4806981768      -19.9872955237  TIP3      88              0.0000000000
     22584       280  TIP3      H2             26.5373984799       13.9708073458      -18.8932860810  TIP3      88              0.0000000000
     22585       281  TIP3      OH2            34.9148137217        6.2996272133      -19.3359241567  TIP3      89              0.0000000000
     22586       281  TIP3      H1             35.6337403929        6.6250405171      -19.9074368120  TIP3      89              0.0000000000
     22587       281  TIP3      H2             35.3696775697        6.2097325101      -18.4843136516  TIP3      89              0.0000000000
     22588       282  TIP3      OH2            33.0616023624        6.0195249712      -21.7083539836  TIP3      90              0.0000000000
     22589       282  TIP3      H1             33.7222515188        6.3633160513      -21.0783570076  TIP3      90              0.0000000000
     22590       282  TIP3      H2             32.2715215616        5.9870127269      -21.1474369345  TIP3      90              0.0000000000
     22591       283  TIP3      OH2           -10.7739113298      -30.3400983279      -20.2286498614  TIP3      91              0.0000000000
     22592       283  TIP3      H1             -9.8982652685      -30.7237153737      -20.4269793781  TIP3      91              0.0000000000
     22593       283  TIP3      H2            -10.5696148750      -29.4260475738      -20.0127793593  TIP3      91              0.0000000000
     22594       284  TIP3      OH2           -15.4926783073      -34.0335442395      -20.6776790162  TIP3      92              0.0000000000
     22595       284  TIP3      H1            -14.5349363854      -33.9260007996      -20.6643427868  TIP3      92              0.0000000000
     22596       284  TIP3      H2            -15.6739014688      -34.5128468682      -21.4911195606  TIP3      92              0.0000000000
     22597       285  TIP3      OH2           -11.9991389913      -31.9981107522      -22.3459607927  TIP3      93              0.0000000000
     22598       285  TIP3      H1            -11.7230011136      -31.4299067325      -21.5986859036  TIP3      93              0.0000000000
     22599       285  TIP3      H2            -12.5844701181      -31.4103827834      -22.8528096345  TIP3      93              0.0000000000
     22600       286  TIP3      OH2            25.3379735468       26.5440850736      -20.9812911448  TIP3      94              0.0000000000
     22601       286  TIP3      H1             24.8060835690       26.6844414238      -21.7793781611  TIP3      94              0.0000000000
     22602       286  TIP3      H2             25.3326791974       25.5669019447      -20.9135678489  TIP3      94              0.0000000000
     22603       287  TIP3      OH2            24.2863529873       23.6033126022      -21.0958613185  TIP3      95              0.0000000000
     22604       287  TIP3      H1             23.4562717888       23.5962679888      -20.5989296864  TIP3      95              0.0000000000
     22605       287  TIP3      H2             24.4748106873       22.6691617163      -21.2185015213  TIP3      95              0.0000000000
     22606       288  TIP3      OH2            27.8170036585       25.6042329212      -22.4398817644  TIP3      96              0.0000000000
     22607       288  TIP3      H1             27.3151962846       25.8100713291      -21.6367768293  TIP3      96              0.0000000000
     22608       288  TIP3      H2             28.4298247825       24.9139907801      -22.1470791967  TIP3      96              0.0000000000
     22609       289  TIP3      OH2           -29.7661866459       17.8370255845      -21.5442533883  TIP3      97              0.0000000000
     22610       289  TIP3      H1            -30.5135448918       17.2741996492      -21.7926826194  TIP3      97              0.0000000000
     22611       289  TIP3      H2            -29.0632840024       17.3668426769      -22.0083678193  TIP3      97              0.0000000000
     22612       290  TIP3      OH2           -30.3818394448       20.5361063016      -20.4799859650  TIP3      98              0.0000000000
     22613       290  TIP3      H1            -30.2263266156       19.6767843327      -20.9107691591  TIP3      98              0.0000000000
     22614       290  TIP3      H2            -30.9089656312       20.2358047529      -19.7233074140  TIP3      98              0.0000000000
     22615       291  TIP3      OH2           -28.6784307016       16.5864466197      -18.9562847266  TIP3      99              0.0000000000
     22616       291  TIP3      H1            -28.5087293083       17.5341539987      -18.8708411295  TIP3      99              0.0000000000
     22617       291  TIP3      H2            -28.2384003675       16.2194216283      -18.1869407982  TIP3      99              0.0000000000
     22618       292  TIP3      OH2           -28.4931744153       24.2298146293      -20.9311118136  TIP3      100             0.0000000000
     22619       292  TIP3      H1            -28.5374109894       24.8483272773      -20.1742077884  TIP3      100             0.0000000000
     22620       292  TIP3      H2            -29.0199486252       24.6805346663      -21.6119017966  TIP3      100             0.0000000000
     22621       293  TIP3      OH2            31.5344245656      -24.1405039793      -20.0496860654  TIP3      101             0.0000000000
     22622       293  TIP3      H1             30.5730620592      -24.0172453859      -20.0602382920  TIP3      101             0.0000000000
     22623       293  TIP3      H2             31.6113941789      -25.0731006131      -19.7940261068  TIP3      101             0.0000000000
     22624       294  TIP3      OH2           -35.5583216961       31.6522056018      -20.6597250724  TIP3      102             0.0000000000
     22625       294  TIP3      H1            -35.2491270007       32.3518598176      -21.2574890051  TIP3      102             0.0000000000
     22626       294  TIP3      H2            -36.4204286658       31.9816127630      -20.3654163351  TIP3      102             0.0000000000
     22627       295  TIP3      OH2           -25.0135030920      -26.7215248121       26.6691123534  TIP3      103             0.0000000000
     22628       295  TIP3      H1            -24.6086232246      -26.0636216569       27.2697305612  TIP3      103             0.0000000000
     22629       295  TIP3      H2            -25.5090358324      -26.0556896768       26.1477293906  TIP3      103             0.0000000000
     22630       296  TIP3      OH2           -26.0961273133      -27.2929587724       30.4056714084  TIP3      104             0.0000000000
     22631       296  TIP3      H1            -25.8933658757      -27.7740701879       31.2451250684  TIP3      104             0.0000000000
     22632       296  TIP3      H2            -26.7128371150      -27.9097886661       29.9609680561  TIP3      104             0.0000000000
     22633       297  TIP3      OH2           -33.8012085766      -27.4278283145       31.4691985363  TIP3      105             0.0000000000
     22634       297  TIP3      H1            -34.0884277327      -28.1810742955       32.0157416178  TIP3      105             0.0000000000
     22635       297  TIP3      H2            -32.9392172544      -27.2179777933       31.8556393999  TIP3      105             0.0000000000
     22636       298  TIP3      OH2           -23.0513901215      -24.4048508035       28.0715539730  TIP3      106             0.0000000000
     22637       298  TIP3      H1            -23.1301120388      -25.1475116480       28.7015202329  TIP3      106             0.0000000000
     22638       298  TIP3      H2            -22.6328985897      -23.7780451818       28.7027874365  TIP3      106             0.0000000000
     22639       299  TIP3      OH2           -32.8530442727      -23.2765284288       30.1434230475  TIP3      107             0.0000000000
     22640       299  TIP3      H1            -33.1977506491      -24.1471595722       29.8632379160  TIP3      107             0.0000000000
     22641       299  TIP3      H2            -31.9456983649      -23.3701911605       29.8146614381  TIP3      107             0.0000000000
     22642       300  TIP3      OH2           -35.7284863169      -29.6063871320       25.5261125040  TIP3      108             0.0000000000
     22643       300  TIP3      H1            -36.6023242115      -29.3072051293       25.8817690080  TIP3      108             0.0000000000
     22644       300  TIP3      H2            -35.9423258776      -30.4054664546       25.0057278753  TIP3      108             0.0000000000
     22645       301  TIP3      OH2           -35.7273803209      -27.4371206782       28.2886762386  TIP3      109             0.0000000000
     22646       301  TIP3      H1            -35.5237509776      -28.3302613719       27.9382985291  TIP3      109             0.0000000000
     22647       301  TIP3      H2            -35.1280185624      -26.8467368276       27.8095438338  TIP3      109             0.0000000000
     22648       302  TIP3      OH2           -25.1535798179      -19.4680988103       28.7575679691  TIP3      110             0.0000000000
     22649       302  TIP3      H1            -24.5746598060      -19.9585120514       28.1249227929  TIP3      110             0.0000000000
     22650       302  TIP3      H2            -25.5847167644      -20.2141830372       29.1906558489  TIP3      110             0.0000000000
     22651       303  TIP3      OH2           -27.6959919540      -24.6435531639       31.0262094196  TIP3      111             0.0000000000
     22652       303  TIP3      H1            -27.3760893803      -25.2420978634       30.3298858811  TIP3      111             0.0000000000
     22653       303  TIP3      H2            -26.8348436995      -24.4241369203       31.4479100087  TIP3      111             0.0000000000
     22654       304  TIP3      OH2           -19.1116921300      -33.8509399829       31.4070542337  TIP3      112             0.0000000000
     22655       304  TIP3      H1            -18.6943793823      -33.3850870282       32.1644084426  TIP3      112             0.0000000000
     22656       304  TIP3      H2            -19.2742444584      -33.0727385829       30.8298665870  TIP3      112             0.0000000000
     22657       305  TIP3      OH2           -24.0471764785      -30.4547861395       31.4347594516  TIP3      113             0.0000000000
     22658       305  TIP3      H1            -23.8097145113      -31.3044597150       31.8357713429  TIP3      113             0.0000000000
     22659       305  TIP3      H2            -24.1288016999      -30.6643761698       30.4891094508  TIP3      113             0.0000000000
     22660       306  TIP3      OH2           -31.4103697703      -32.2386786389       28.0346576209  TIP3      114             0.0000000000
     22661       306  TIP3      H1            -31.1196606934      -31.5869441847       27.3765413726  TIP3      114             0.0000000000
     22662       306  TIP3      H2            -31.6910191980      -32.9694642829       27.4455188137  TIP3      114             0.0000000000
     22663       307  TIP3      OH2           -23.8818017711      -32.6003897895       27.0521581173  TIP3      115             0.0000000000
     22664       307  TIP3      H1            -23.1374770758      -32.5542896291       27.7010625751  TIP3      115             0.0000000000
     22665       307  TIP3      H2            -23.4969448234      -32.0272353443       26.3842654025  TIP3      115             0.0000000000
     22666       308  TIP3      OH2           -35.1248508926      -30.1354854424       28.7372120853  TIP3      116             0.0000000000
     22667       308  TIP3      H1            -34.5007261253      -30.4638543438       29.4014272322  TIP3      116             0.0000000000
     22668       308  TIP3      H2            -34.5398925422      -30.1886798945       27.9494497062  TIP3      116             0.0000000000
     22669       309  TIP3      OH2           -29.9353752798      -28.4120700961       28.3675417910  TIP3      117             0.0000000000
     22670       309  TIP3      H1            -29.0721123100      -28.8667324871       28.4683504694  TIP3      117             0.0000000000
     22671       309  TIP3      H2            -30.4191543968      -29.0219107831       27.7492886743  TIP3      117             0.0000000000
     22672       310  TIP3      OH2           -18.7324915196      -32.3991826620       33.7051468852  TIP3      118             0.0000000000
     22673       310  TIP3      H1            -19.1761579677      -31.6597789238       33.2304239686  TIP3      118             0.0000000000
     22674       310  TIP3      H2            -18.7716746637      -32.0012308825       34.5911195310  TIP3      118             0.0000000000
     22675       311  TIP3      OH2           -32.3634892855      -33.3858505133       32.4805535570  TIP3      119             0.0000000000
     22676       311  TIP3      H1            -32.7686195523      -32.8713951551       31.7626404526  TIP3      119             0.0000000000
     22677       311  TIP3      H2            -33.1081247543      -33.3899160866       33.1270433900  TIP3      119             0.0000000000
     22678       312  TIP3      OH2           -25.6663528444      -24.0697132484       25.8521650400  TIP3      120             0.0000000000
     22679       312  TIP3      H1            -25.1309134096      -23.5574613315       25.2234731307  TIP3      120             0.0000000000
     22680       312  TIP3      H2            -25.8975736485      -23.3657567455       26.4907894842  TIP3      120             0.0000000000
     22681       313  TIP3      OH2           -29.9786693151      -25.7159280159       31.8762728858  TIP3      121             0.0000000000
     22682       313  TIP3      H1            -30.5513350659      -24.9676534120       32.1727235547  TIP3      121             0.0000000000
     22683       313  TIP3      H2            -29.1697005478      -25.2178937056       31.6106095559  TIP3      121             0.0000000000
     22684       314  TIP3      OH2           -21.8950827332      -32.2794459406       28.6795465059  TIP3      122             0.0000000000
     22685       314  TIP3      H1            -21.4655983861      -33.0848596184       28.9671064075  TIP3      122             0.0000000000
     22686       314  TIP3      H2            -21.2540201575      -31.5984370635       28.9730245084  TIP3      122             0.0000000000
     22687       315  TIP3      OH2           -32.9995337415      -31.4953275794       30.3613962811  TIP3      123             0.0000000000
     22688       315  TIP3      H1            -32.4971926790      -30.8528221397       30.9141307891  TIP3      123             0.0000000000
     22689       315  TIP3      H2            -32.3587833564      -31.6587109512       29.6258316754  TIP3      123             0.0000000000
     22690       316  TIP3      OH2           -31.3256590450      -23.7542301584       32.9718772476  TIP3      124             0.0000000000
     22691       316  TIP3      H1            -31.4709752698      -22.9191988854       32.5077864595  TIP3      124             0.0000000000
     22692       316  TIP3      H2            -32.2142824894      -23.8697650016       33.3595133134  TIP3      124             0.0000000000
     22693       317  TIP3      OH2           -36.1930028270      -24.2491018311       24.3746971228  TIP3      125             0.0000000000
     22694       317  TIP3      H1            -35.6312210611      -24.6374281618       23.6725421229  TIP3      125             0.0000000000
     22695       317  TIP3      H2            -35.5921554648      -23.9623268431       25.0722127243  TIP3      125             0.0000000000
     22696       318  TIP3      OH2           -22.1611680111      -22.7534011710       30.0283851100  TIP3      126             0.0000000000
     22697       318  TIP3      H1            -22.9808404726      -22.5449155874       30.5299972061  TIP3      126             0.0000000000
     22698       318  TIP3      H2            -21.6912900927      -21.8985203263       30.1316186580  TIP3      126             0.0000000000
     22699       319  TIP3      OH2           -21.5302997156      -34.1455412785       32.6273520444  TIP3      127             0.0000000000
     22700       319  TIP3      H1            -22.2583199678      -33.9934794070       31.9851623210  TIP3      127             0.0000000000
     22701       319  TIP3      H2            -20.7447594862      -34.0643200890       32.0450877260  TIP3      127             0.0000000000
     22702       320  TIP3      OH2           -28.3322988019      -35.4031626354       29.7482814980  TIP3      128             0.0000000000
     22703       320  TIP3      H1            -28.5493420125      -36.2497946942       30.1688724580  TIP3      128             0.0000000000
     22704       320  TIP3      H2            -29.0771230952      -34.8662585831       30.0945297503  TIP3      128             0.0000000000
     22705       321  TIP3      OH2           -23.5999892669      -20.8108318374       27.0982913952  TIP3      129             0.0000000000
     22706       321  TIP3      H1            -23.2381309190      -21.7005527348       26.9398970776  TIP3      129             0.0000000000
     22707       321  TIP3      H2            -22.8770396358      -20.2479564740       26.7519200231  TIP3      129             0.0000000000
     22708       322  TIP3      OH2           -22.2485149414      -22.8517466972       25.9020377652  TIP3      130             0.0000000000
     22709       322  TIP3      H1            -22.0056305353      -23.6628637883       25.3847802874  TIP3      130             0.0000000000
     22710       322  TIP3      H2            -22.5685948209      -23.3333657260       26.6955747461  TIP3      130             0.0000000000
     22711       323  TIP3      OH2           -20.7477570876      -24.2387494756       34.8851233461  TIP3      131             0.0000000000
     22712       323  TIP3      H1            -20.7337814292      -25.0193139111       34.2708629014  TIP3      131             0.0000000000
     22713       323  TIP3      H2            -20.5737665498      -23.5571864705       34.2079327753  TIP3      131             0.0000000000
     22714       324  TIP3      OH2           -18.6221239085      -27.6366822656       32.9233515290  TIP3      132             0.0000000000
     22715       324  TIP3      H1            -19.5833472596      -27.5658125420       32.7453789049  TIP3      132             0.0000000000
     22716       324  TIP3      H2            -18.3067189062      -27.2693953771       32.0702193085  TIP3      132             0.0000000000
     22717       325  TIP3      OH2           -22.7871041486      -27.5612046775       25.1595384408  TIP3      133             0.0000000000
     22718       325  TIP3      H1            -23.3782807246      -27.4388897062       25.9213523955  TIP3      133             0.0000000000
     22719       325  TIP3      H2            -21.9895957852      -27.9290007700       25.5915936673  TIP3      133             0.0000000000
     22720       326  TIP3      OH2           -22.8894712955      -28.7067453598       34.6834640556  TIP3      134             0.0000000000
     22721       326  TIP3      H1            -23.5187725220      -27.9690822527       34.7355470830  TIP3      134             0.0000000000
     22722       326  TIP3      H2            -22.7438350467      -28.7588081868       33.7187416576  TIP3      134             0.0000000000
     22723       327  TIP3      OH2           -31.1160293752      -26.2744541233       27.3367936846  TIP3      135             0.0000000000
     22724       327  TIP3      H1            -31.5820854371      -26.7738516255       26.6532747700  TIP3      135             0.0000000000
     22725       327  TIP3      H2            -30.5870422105      -26.9880436953       27.7612589442  TIP3      135             0.0000000000
     22726       328  TIP3      OH2           -29.6541797513      -22.9589195087       30.0284001872  TIP3      136             0.0000000000
     22727       328  TIP3      H1            -29.6046853127      -23.2731566813       29.1191366961  TIP3      136             0.0000000000
     22728       328  TIP3      H2            -28.8854271681      -23.4196916739       30.4285700970  TIP3      136             0.0000000000
     22729       329  TIP3      OH2           -30.8652181089      -27.9247158294       30.7991008867  TIP3      137             0.0000000000
     22730       329  TIP3      H1            -30.4444270236      -27.9591279689       29.9127172160  TIP3      137             0.0000000000
     22731       329  TIP3      H2            -30.5043228696      -27.0916223599       31.1797456284  TIP3      137             0.0000000000
     22732       330  TIP3      OH2           -24.2387847145      -22.0053742905       31.5689724580  TIP3      138             0.0000000000
     22733       330  TIP3      H1            -24.6354865172      -21.2316619325       32.0097113635  TIP3      138             0.0000000000
     22734       330  TIP3      H2            -24.5640927879      -22.7415244536       32.1193266117  TIP3      138             0.0000000000
     22735       331  TIP3      OH2           -29.8746052987      -23.6136676490       35.2835929645  TIP3      139             0.0000000000
     22736       331  TIP3      H1            -30.5830454970      -23.0231233228       35.6297832665  TIP3      139             0.0000000000
     22737       331  TIP3      H2            -30.2638064731      -23.7940921869       34.3980366654  TIP3      139             0.0000000000
     22738       332  TIP3      OH2           -32.4953698644      -27.2785638261       34.6015876294  TIP3      140             0.0000000000
     22739       332  TIP3      H1            -32.5174273562      -26.8198236999       35.4570195131  TIP3      140             0.0000000000
     22740       332  TIP3      H2            -33.4338061669      -27.3334733534       34.3600480416  TIP3      140             0.0000000000
     22741       333  TIP3      OH2           -26.4877492026      -20.9167899614       26.4888019317  TIP3      141             0.0000000000
     22742       333  TIP3      H1            -26.0347958669      -20.2084507792       26.9578993412  TIP3      141             0.0000000000
     22743       333  TIP3      H2            -26.7877998373      -20.4485330025       25.7012789931  TIP3      141             0.0000000000
     22744       334  TIP3      OH2           -31.5510683547      -21.7840289335       36.3633983981  TIP3      142             0.0000000000
     22745       334  TIP3      H1            -31.8299267849      -21.4955598827       35.4716712051  TIP3      142             0.0000000000
     22746       334  TIP3      H2            -32.4131692110      -21.8909359685       36.8061973086  TIP3      142             0.0000000000
     22747       335  TIP3      OH2           -19.9598242728      -35.9457111823       22.7974309282  TIP3      143             0.0000000000
     22748       335  TIP3      H1            -20.5890951439      -35.8837109887       23.5347116133  TIP3      143             0.0000000000
     22749       335  TIP3      H2            -19.8807749036      -35.0038084692       22.5478830516  TIP3      143             0.0000000000
     22750       336  TIP3      OH2           -35.3724095555      -24.8706633630       33.3108500473  TIP3      144             0.0000000000
     22751       336  TIP3      H1            -36.3346205787      -24.6805482701       33.2753780764  TIP3      144             0.0000000000
     22752       336  TIP3      H2            -35.3930652011      -25.8176578809       33.5350188363  TIP3      144             0.0000000000
     22753       337  TIP3      OH2           -35.5847727372      -22.0639337136       29.8749340440  TIP3      145             0.0000000000
     22754       337  TIP3      H1            -34.8400983427      -22.6865332690       29.7613044561  TIP3      145             0.0000000000
     22755       337  TIP3      H2            -35.8795146421      -22.2954136355       30.7692888244  TIP3      145             0.0000000000
     22756       338  TIP3      OH2           -18.1358763449      -21.7471580788       36.1739923033  TIP3      146             0.0000000000
     22757       338  TIP3      H1            -18.2208805464      -22.6950307743       35.9749108053  TIP3      146             0.0000000000
     22758       338  TIP3      H2            -19.0268289986      -21.5995665002       36.5697480201  TIP3      146             0.0000000000
     22759       339  TIP3      OH2           -27.0847255644      -22.4942433611       35.4312910656  TIP3      147             0.0000000000
     22760       339  TIP3      H1            -27.0337471656      -21.7391116549       36.0450839843  TIP3      147             0.0000000000
     22761       339  TIP3      H2            -28.0487142272      -22.6481609440       35.3502591987  TIP3      147             0.0000000000
     22762       340  TIP3      OH2           -26.8362853690      -18.5314075277       24.5466844590  TIP3      148             0.0000000000
     22763       340  TIP3      H1            -26.8727587008      -18.2962964001       23.5936785196  TIP3      148             0.0000000000
     22764       340  TIP3      H2            -27.0741725130      -17.6664830646       24.9291475310  TIP3      148             0.0000000000
     22765       341  TIP3      OH2           -32.9303045928      -19.7636100783       26.6689007073  TIP3      149             0.0000000000
     22766       341  TIP3      H1            -32.4344386699      -19.8317400134       27.5191745296  TIP3      149             0.0000000000
     22767       341  TIP3      H2            -33.7433783732      -20.2657795834       26.9025967121  TIP3      149             0.0000000000
     22768       342  TIP3      OH2           -23.7589935617      -19.4032566818       21.2826389868  TIP3      150             0.0000000000
     22769       342  TIP3      H1            -23.3972525324      -20.2289171758       20.9050720450  TIP3      150             0.0000000000
     22770       342  TIP3      H2            -23.5013531938      -19.5065437239       22.2177458069  TIP3      150             0.0000000000
     22771       343  TIP3      OH2           -23.9716998094      -19.4928126920       24.2061303877  TIP3      151             0.0000000000
     22772       343  TIP3      H1            -24.8625650319      -19.1768812088       24.4497362263  TIP3      151             0.0000000000
     22773       343  TIP3      H2            -23.8919729350      -20.2671494229       24.7862457459  TIP3      151             0.0000000000
     22774       344  TIP3      OH2           -21.1068785093      -30.0596376192       36.5060204141  TIP3      152             0.0000000000
     22775       344  TIP3      H1            -21.5311614093      -29.4659465475       35.8504918050  TIP3      152             0.0000000000
     22776       344  TIP3      H2            -21.1426150871      -30.8719206030       35.9721013061  TIP3      152             0.0000000000
     22777       345  TIP3      OH2           -33.5116036235      -23.3209619665       34.6037908731  TIP3      153             0.0000000000
     22778       345  TIP3      H1            -33.5083766740      -23.7804488903       35.4726658343  TIP3      153             0.0000000000
     22779       345  TIP3      H2            -34.2751175301      -23.7734645375       34.1779835609  TIP3      153             0.0000000000
     22780       346  TIP3      OH2           -30.6231160565      -34.3459377826       30.6421964456  TIP3      154             0.0000000000
     22781       346  TIP3      H1            -31.3313237801      -34.7506247988       30.1273928588  TIP3      154             0.0000000000
     22782       346  TIP3      H2            -31.1204199180      -33.9135429936       31.3635565989  TIP3      154             0.0000000000
     22783       347  TIP3      OH2           -25.9843478365      -35.9971491829       34.3327230046  TIP3      155             0.0000000000
     22784       347  TIP3      H1            -26.0722356986      -35.6602805123       35.2327357986  TIP3      155             0.0000000000
     22785       347  TIP3      H2            -26.8160284105      -35.7400637708       33.9116349886  TIP3      155             0.0000000000
     22786       348  TIP3      OH2           -23.6289447602      -31.3823161445       35.0034859675  TIP3      156             0.0000000000
     22787       348  TIP3      H1            -24.1769508774      -31.6298665199       35.7844608204  TIP3      156             0.0000000000
     22788       348  TIP3      H2            -23.3570783956      -30.4620335942       35.1996501039  TIP3      156             0.0000000000
     22789       349  TIP3      OH2           -31.0512606584      -30.3427758693       31.8720271798  TIP3      157             0.0000000000
     22790       349  TIP3      H1            -31.6246807370      -30.1555757712       32.6500222229  TIP3      157             0.0000000000
     22791       349  TIP3      H2            -30.9662632763      -29.4326422102       31.4949718706  TIP3      157             0.0000000000
     22792       350  TIP3      OH2           -31.3235570937      -29.8269008519       26.5807960118  TIP3      158             0.0000000000
     22793       350  TIP3      H1            -32.2243337711      -30.2257338945       26.5716528235  TIP3      158             0.0000000000
     22794       350  TIP3      H2            -30.9779579747      -30.0685769590       25.6910067438  TIP3      158             0.0000000000
     22795       351  TIP3      OH2           -26.0330087705      -29.2276089357       24.8920561033  TIP3      159             0.0000000000
     22796       351  TIP3      H1            -25.4473872990      -28.6467152359       25.4102548611  TIP3      159             0.0000000000
     22797       351  TIP3      H2            -25.3647306384      -29.7495432230       24.3820196420  TIP3      159             0.0000000000
     22798       352  TIP3      OH2           -26.4639457297      -29.1407053167       36.8468321808  TIP3      160             0.0000000000
     22799       352  TIP3      H1            -26.9228209472      -29.9108362656       37.2661457578  TIP3      160             0.0000000000
     22800       352  TIP3      H2            -25.6098765569      -29.1709399880       37.3035790951  TIP3      160             0.0000000000
     22801       353  TIP3      OH2           -24.8066556002      -29.6777295910       28.6055569681  TIP3      161             0.0000000000
     22802       353  TIP3      H1            -24.9550576799      -28.8401120944       28.1419443476  TIP3      161             0.0000000000
     22803       353  TIP3      H2            -24.7647109621      -30.3559091959       27.9176216352  TIP3      161             0.0000000000
     22804       354  TIP3      OH2           -33.6529188950      -30.2249913956       33.0845156132  TIP3      162             0.0000000000
     22805       354  TIP3      H1            -33.5917402024      -29.9210753593       34.0024829980  TIP3      162             0.0000000000
     22806       354  TIP3      H2            -33.8855650915      -31.1676648060       33.1804057853  TIP3      162             0.0000000000
     22807       355  TIP3      OH2           -36.2185806631      -33.2711903936       26.9939720529  TIP3      163             0.0000000000
     22808       355  TIP3      H1            -35.8757052173      -33.1111736676       27.8868143288  TIP3      163             0.0000000000
     22809       355  TIP3      H2            -35.4275843828      -33.5444040460       26.5005131995  TIP3      163             0.0000000000
     22810       356  TIP3      OH2           -36.0208103315      -31.1889605470       23.2629417371  TIP3      164             0.0000000000
     22811       356  TIP3      H1            -35.1182088794      -31.3484859672       22.9196271949  TIP3      164             0.0000000000
     22812       356  TIP3      H2            -36.3577931865      -30.7330157357       22.4614637381  TIP3      164             0.0000000000
     22813       357  TIP3      OH2           -25.3826131288      -28.5352588792       32.6279725229  TIP3      165             0.0000000000
     22814       357  TIP3      H1            -24.7095660472      -29.1863012685       32.2925525068  TIP3      165             0.0000000000
     22815       357  TIP3      H2            -25.8389602156      -29.0935250062       33.2978578142  TIP3      165             0.0000000000
     22816       358  TIP3      OH2           -28.2439400896      -32.4157564332       27.7074130753  TIP3      166             0.0000000000
     22817       358  TIP3      H1            -29.0953970077      -32.7288766949       28.0526840619  TIP3      166             0.0000000000
     22818       358  TIP3      H2            -27.6108166317      -32.8110776246       28.3507048355  TIP3      166             0.0000000000
     22819       359  TIP3      OH2           -33.5855742931      -31.1164555477       26.4895329308  TIP3      167             0.0000000000
     22820       359  TIP3      H1            -34.0002596471      -30.7487007694       25.6780315813  TIP3      167             0.0000000000
     22821       359  TIP3      H2            -33.2450557116      -31.9907939027       26.1724241571  TIP3      167             0.0000000000
     22822       360  TIP3      OH2           -30.1699012724      -30.9526498215       24.4712376111  TIP3      168             0.0000000000
     22823       360  TIP3      H1            -29.3411017455      -31.3179821451       24.1189596301  TIP3      168             0.0000000000
     22824       360  TIP3      H2            -30.8120311038      -31.0251637450       23.7363398161  TIP3      168             0.0000000000
     22825       361  TIP3      OH2           -23.8661071439      -33.7094430082       31.2848592965  TIP3      169             0.0000000000
     22826       361  TIP3      H1            -24.6589350765      -33.4749817873       31.8011334689  TIP3      169             0.0000000000
     22827       361  TIP3      H2            -24.1442934454      -33.5620159430       30.3737364953  TIP3      169             0.0000000000
     22828       362  TIP3      OH2           -20.6605218670      -17.8622751573       37.8026002129  TIP3      170             0.0000000000
     22829       362  TIP3      H1            -20.4444438670      -17.6160440745       36.8764386037  TIP3      170             0.0000000000
     22830       362  TIP3      H2            -19.8541505203      -17.5497243926       38.2744514770  TIP3      170             0.0000000000
     22831       363  TIP3      OH2           -33.4232659309      -25.1796800906       36.7653033739  TIP3      171             0.0000000000
     22832       363  TIP3      H1            -32.8114542302      -25.1898978833       37.5263306224  TIP3      171             0.0000000000
     22833       363  TIP3      H2            -34.2673493211      -25.3839137325       37.2068901156  TIP3      171             0.0000000000
     22834       364  TIP3      OH2           -27.4932148927      -29.4269617319       29.2498134738  TIP3      172             0.0000000000
     22835       364  TIP3      H1            -26.7331902642      -29.9591955221       28.9825336134  TIP3      172             0.0000000000
     22836       364  TIP3      H2            -27.9698936563      -30.0775593425       29.7811608262  TIP3      172             0.0000000000
     22837       365  TIP3      OH2           -32.5481942568      -33.6686564363       25.8981901010  TIP3      173             0.0000000000
     22838       365  TIP3      H1            -32.7951238574      -34.5434200676       26.2759470341  TIP3      173             0.0000000000
     22839       365  TIP3      H2            -32.2722064700      -33.9013395732       24.9966806039  TIP3      173             0.0000000000
     22840       366  TIP3      OH2           -28.5757831827      -31.4976269046       31.6110085734  TIP3      174             0.0000000000
     22841       366  TIP3      H1            -29.4256497109      -30.9979864894       31.6254074248  TIP3      174             0.0000000000
     22842       366  TIP3      H2            -28.1002841937      -31.0961981636       32.3534517516  TIP3      174             0.0000000000
     22843       367  TIP3      OH2           -20.6661893205      -25.6070737405       32.7176774283  TIP3      175             0.0000000000
     22844       367  TIP3      H1            -20.2364179555      -25.1189111408       31.9705448110  TIP3      175             0.0000000000
     22845       367  TIP3      H2            -21.3051875301      -26.1718232459       32.2564710982  TIP3      175             0.0000000000
     22846       368  TIP3      OH2           -26.7717740786      -25.1362647397       34.6894929181  TIP3      176             0.0000000000
     22847       368  TIP3      H1            -27.1180846661      -25.5656187731       35.4775451915  TIP3      176             0.0000000000
     22848       368  TIP3      H2            -26.9041485948      -24.1937225008       34.9053174915  TIP3      176             0.0000000000
     22849       369  TIP3      OH2           -24.0307596775      -30.1053264564       23.4584940615  TIP3      177             0.0000000000
     22850       369  TIP3      H1            -23.4062756701      -30.5352964930       24.0651596697  TIP3      177             0.0000000000
     22851       369  TIP3      H2            -23.4544181554      -29.9839920225       22.6800059440  TIP3      177             0.0000000000
     22852       370  TIP3      OH2           -33.0816431654      -25.7067479910       29.1233255608  TIP3      178             0.0000000000
     22853       370  TIP3      H1            -32.3971597562      -25.8156233418       28.4313001229  TIP3      178             0.0000000000
     22854       370  TIP3      H2            -32.9495958217      -26.4661268933       29.7233232312  TIP3      178             0.0000000000
     22855       371  TIP3      OH2           -26.6806060546      -24.3253737049       23.3131403393  TIP3      179             0.0000000000
     22856       371  TIP3      H1            -26.6519555169      -23.4119840854       22.9460492602  TIP3      179             0.0000000000
     22857       371  TIP3      H2            -26.6322134134      -24.1253239131       24.2763829197  TIP3      179             0.0000000000
     22858       372  TIP3      OH2           -35.4420597720      -27.8265122534       34.2853931247  TIP3      180             0.0000000000
     22859       372  TIP3      H1            -35.5657340483      -27.9932684063       35.2434866570  TIP3      180             0.0000000000
     22860       372  TIP3      H2            -36.2019831198      -28.2816891215       33.8810121253  TIP3      180             0.0000000000
     22861       373  TIP3      OH2           -28.9413511727      -28.0343095781       36.4901842545  TIP3      181             0.0000000000
     22862       373  TIP3      H1            -29.4424055073      -28.5084535212       35.8194702568  TIP3      181             0.0000000000
     22863       373  TIP3      H2            -28.0875887215      -28.5350240759       36.4752069803  TIP3      181             0.0000000000
     22864       374  TIP3      OH2           -23.9434888943      -22.6970394677       35.1466879923  TIP3      182             0.0000000000
     22865       374  TIP3      H1            -24.7906882150      -22.6845408683       34.6810755772  TIP3      182             0.0000000000
     22866       374  TIP3      H2            -24.2192923199      -22.2999491093       36.0002803880  TIP3      182             0.0000000000
     22867       375  TIP3      OH2           -19.5246023390      -30.0333614933       23.8311835711  TIP3      183             0.0000000000
     22868       375  TIP3      H1            -19.1230794863      -30.7109222202       23.2660915347  TIP3      183             0.0000000000
     22869       375  TIP3      H2            -18.8566801430      -29.3374654772       23.9159554333  TIP3      183             0.0000000000
     22870       376  TIP3      OH2           -18.3104981935      -24.5940201836       36.0530025663  TIP3      184             0.0000000000
     22871       376  TIP3      H1            -19.2693819251      -24.5197857544       35.8510015938  TIP3      184             0.0000000000
     22872       376  TIP3      H2            -17.9153857799      -24.7202387348       35.1611763814  TIP3      184             0.0000000000
     22873       377  TIP3      OH2           -20.4265628198      -21.7581099428       23.6203340852  TIP3      185             0.0000000000
     22874       377  TIP3      H1            -21.2221516337      -22.2044137096       23.9516733550  TIP3      185             0.0000000000
     22875       377  TIP3      H2            -19.7878952621      -22.4842071885       23.5831142358  TIP3      185             0.0000000000
     22876       378  TIP3      OH2           -23.2591009454      -26.6582923201       30.0863402941  TIP3      186             0.0000000000
     22877       378  TIP3      H1            -24.1000050447      -27.0679034117       30.3539957405  TIP3      186             0.0000000000
     22878       378  TIP3      H2            -22.5997157643      -27.2598519024       30.5000497759  TIP3      186             0.0000000000
     22879       379  TIP3      OH2           -31.0213096350      -22.4998928774       27.0507480290  TIP3      187             0.0000000000
     22880       379  TIP3      H1            -30.3049626950      -21.8614288602       26.8588990478  TIP3      187             0.0000000000
     22881       379  TIP3      H2            -31.7573839438      -22.0877566302       26.5770087612  TIP3      187             0.0000000000
     22882       380  TIP3      OH2           -29.1980054279      -24.3357564737       26.2016121471  TIP3      188             0.0000000000
     22883       380  TIP3      H1            -29.9128977701      -23.9022796423       26.7096703442  TIP3      188             0.0000000000
     22884       380  TIP3      H2            -29.4172122637      -25.2783281532       26.2863392704  TIP3      188             0.0000000000
     22885       381  TIP3      OH2           -28.4580375693      -20.7042722690       33.2443965292  TIP3      189             0.0000000000
     22886       381  TIP3      H1            -27.9510580666      -20.0223169179       32.7686405933  TIP3      189             0.0000000000
     22887       381  TIP3      H2            -27.7801439801      -20.9953661326       33.8705800535  TIP3      189             0.0000000000
     22888       382  TIP3      OH2           -30.2235072144      -20.1708064494       25.7997233620  TIP3      190             0.0000000000
     22889       382  TIP3      H1            -31.1412354539      -19.9450588221       26.0402173557  TIP3      190             0.0000000000
     22890       382  TIP3      H2            -29.7945232005      -19.3497995420       26.1386652704  TIP3      190             0.0000000000
     22891       383  TIP3      OH2           -25.3215821736      -24.6686635169       32.3760328584  TIP3      191             0.0000000000
     22892       383  TIP3      H1            -25.6944268634      -25.0820698172       33.1890188990  TIP3      191             0.0000000000
     22893       383  TIP3      H2            -24.8052147335      -25.4037972168       32.0033600112  TIP3      191             0.0000000000
     22894       384  TIP3      OH2           -22.2248483154      -20.1861073436       34.7619038889  TIP3      192             0.0000000000
     22895       384  TIP3      H1            -22.9501576301      -20.8408034770       34.7473252514  TIP3      192             0.0000000000
     22896       384  TIP3      H2            -22.3110402615      -19.8332315062       33.8593482953  TIP3      192             0.0000000000
     22897       385  TIP3      OH2           -18.1146335875      -18.7906458513       22.2527260651  TIP3      193             0.0000000000
     22898       385  TIP3      H1            -17.4147983263      -18.3877605463       21.6694805443  TIP3      193             0.0000000000
     22899       385  TIP3      H2            -18.8320400026      -18.1447013675       22.1786150425  TIP3      193             0.0000000000
     22900       386  TIP3      OH2           -34.4572275388      -32.8949866204       34.0154896719  TIP3      194             0.0000000000
     22901       386  TIP3      H1            -34.8753986919      -32.2938655841       34.6519996142  TIP3      194             0.0000000000
     22902       386  TIP3      H2            -34.8911216876      -33.7273357867       34.2840669444  TIP3      194             0.0000000000
     22903       387  TIP3      OH2           -21.7310021807      -25.0685722773       24.5176920352  TIP3      195             0.0000000000
     22904       387  TIP3      H1            -22.0493217572      -25.9267087748       24.8588190348  TIP3      195             0.0000000000
     22905       387  TIP3      H2            -21.2934428563      -25.3277292080       23.6948150312  TIP3      195             0.0000000000
     22906       388  TIP3      OH2           -34.4033177674      -21.0694480518       32.5053994533  TIP3      196             0.0000000000
     22907       388  TIP3      H1            -33.8662030916      -21.8483587578       32.7170601654  TIP3      196             0.0000000000
     22908       388  TIP3      H2            -35.0649416987      -21.0959123394       33.2134716035  TIP3      196             0.0000000000
     22909       389  TIP3      OH2           -28.7731384728      -22.1498027932       20.2282938263  TIP3      197             0.0000000000
     22910       389  TIP3      H1            -29.0183021665      -22.7377549728       19.5124868106  TIP3      197             0.0000000000
     22911       389  TIP3      H2            -29.4066005657      -22.3581499594       20.9459597745  TIP3      197             0.0000000000
     22912       390  TIP3      OH2           -30.1782795871      -23.0834103411       22.4942175109  TIP3      198             0.0000000000
     22913       390  TIP3      H1            -29.9777093724      -23.4325863465       23.3748338474  TIP3      198             0.0000000000
     22914       390  TIP3      H2            -30.0828849593      -22.1232120104       22.7315070850  TIP3      198             0.0000000000
     22915       391  TIP3      OH2           -25.2804494899      -33.0862724257       33.4923976544  TIP3      199             0.0000000000
     22916       391  TIP3      H1            -24.5024649311      -32.6661585132       33.9190054250  TIP3      199             0.0000000000
     22917       391  TIP3      H2            -25.2183205998      -34.0033643026       33.7912149698  TIP3      199             0.0000000000
     22918       392  TIP3      OH2           -26.8187293146      -21.6724231506       23.4151023894  TIP3      200             0.0000000000
     22919       392  TIP3      H1            -27.6968716392      -21.2968079500       23.5853505903  TIP3      200             0.0000000000
     22920       392  TIP3      H2            -26.4839784479      -21.1146989723       22.6948716143  TIP3      200             0.0000000000
     22921       393  TIP3      OH2           -27.5456350548      -31.9358332743       24.9018036458  TIP3      201             0.0000000000
     22922       393  TIP3      H1            -27.0473611919      -31.1011201337       24.9197261390  TIP3      201             0.0000000000
     22923       393  TIP3      H2            -27.8523258086      -32.0083058023       25.8312838611  TIP3      201             0.0000000000
     22924       394  TIP3      OH2           -26.4576677613      -30.3509244077       34.2911188047  TIP3      202             0.0000000000
     22925       394  TIP3      H1            -26.2376709933      -30.1445553336       35.2207914628  TIP3      202             0.0000000000
     22926       394  TIP3      H2            -26.1800569992      -31.2851031816       34.1965765115  TIP3      202             0.0000000000
     22927       395  TIP3      OH2           -26.4008223325      -34.8552078797       26.4033015855  TIP3      203             0.0000000000
     22928       395  TIP3      H1            -26.5306837545      -34.2203250078       27.1413249233  TIP3      203             0.0000000000
     22929       395  TIP3      H2            -26.0104473057      -34.2805010031       25.7288236834  TIP3      203             0.0000000000
     22930       396  TIP3      OH2           -29.7738227806      -20.5970079017       23.1964242454  TIP3      204             0.0000000000
     22931       396  TIP3      H1            -29.5027306453      -19.7709622375       22.7350255835  TIP3      204             0.0000000000
     22932       396  TIP3      H2            -30.0020255218      -20.2402316072       24.0830888240  TIP3      204             0.0000000000
     22933       397  TIP3      OH2           -21.2840750805      -33.1408981903       35.2855949957  TIP3      205             0.0000000000
     22934       397  TIP3      H1            -22.1125033943      -32.7118374056       35.0098125179  TIP3      205             0.0000000000
     22935       397  TIP3      H2            -20.9130944461      -33.4444444082       34.4313805221  TIP3      205             0.0000000000
     22936       398  TIP3      OH2           -22.1408485316      -29.4349001662       28.9603313747  TIP3      206             0.0000000000
     22937       398  TIP3      H1            -23.1111412164      -29.4826399090       29.0425947658  TIP3      206             0.0000000000
     22938       398  TIP3      H2            -21.8622718116      -29.1566307501       29.8669009855  TIP3      206             0.0000000000
     22939       399  TIP3      OH2           -32.0922683576      -22.7757679918       20.5587898834  TIP3      207             0.0000000000
     22940       399  TIP3      H1            -31.4452767517      -22.9336661755       21.2707748111  TIP3      207             0.0000000000
     22941       399  TIP3      H2            -32.4105172299      -23.6474603941       20.3025191145  TIP3      207             0.0000000000
     22942       400  TIP3      OH2           -21.2813926838      -20.1865177755       30.6978523424  TIP3      208             0.0000000000
     22943       400  TIP3      H1            -21.2458762653      -19.4926618240       30.0151083632  TIP3      208             0.0000000000
     22944       400  TIP3      H2            -20.7285523740      -19.7428817908       31.3695593418  TIP3      208             0.0000000000
     22945       401  TIP3      OH2           -33.5541927200      -35.5310099941       29.8584017370  TIP3      209             0.0000000000
     22946       401  TIP3      H1            -33.1899228037      -35.6828582451       28.9636279948  TIP3      209             0.0000000000
     22947       401  TIP3      H2            -33.2118438578      -36.3017291801       30.3340908574  TIP3      209             0.0000000000
     22948       402  TIP3      OH2           -34.8164344872      -21.5422938376       25.7607163426  TIP3      210             0.0000000000
     22949       402  TIP3      H1            -35.7354902365      -21.3879784337       26.0163470371  TIP3      210             0.0000000000
     22950       402  TIP3      H2            -34.6993619860      -20.8832247529       25.0642708621  TIP3      210             0.0000000000
     22951       403  TIP3      OH2           -35.1520405612      -19.4644184025       36.7475835292  TIP3      211             0.0000000000
     22952       403  TIP3      H1            -34.7121689161      -19.3540257407       37.6080435020  TIP3      211             0.0000000000
     22953       403  TIP3      H2            -35.8322350919      -20.1307607942       36.9742188880  TIP3      211             0.0000000000
     22954       404  TIP3      OH2           -30.3892223846      -20.4219922450       38.8687171885  TIP3      212             0.0000000000
     22955       404  TIP3      H1            -29.4686786602      -20.4859977722       38.5847861531  TIP3      212             0.0000000000
     22956       404  TIP3      H2            -30.8238640378      -20.9013790529       38.1435790830  TIP3      212             0.0000000000
     22957       405  TIP3      OH2           -26.3823059861      -20.9447153049       20.6642727126  TIP3      213             0.0000000000
     22958       405  TIP3      H1            -27.2471100614      -21.3684394954       20.4457385036  TIP3      213             0.0000000000
     22959       405  TIP3      H2            -25.9286076050      -20.9419930141       19.8166384324  TIP3      213             0.0000000000
     22960       406  TIP3      OH2           -24.6417552274      -21.5200423002       37.5031154350  TIP3      214             0.0000000000
     22961       406  TIP3      H1            -24.9554940713      -22.3715827857       37.8938832100  TIP3      214             0.0000000000
     22962       406  TIP3      H2            -23.7590119069      -21.4584109124       37.9331680131  TIP3      214             0.0000000000
     22963       407  TIP3      OH2           -22.0814528560      -21.4258363933       20.3858014691  TIP3      215             0.0000000000
     22964       407  TIP3      H1            -21.9189553754      -21.9729111359       21.1572771536  TIP3      215             0.0000000000
     22965       407  TIP3      H2            -21.2038578330      -21.0412820764       20.2472016150  TIP3      215             0.0000000000
     22966       408  TIP3      OH2           -35.6621231413      -25.6840983852       38.3336129990  TIP3      216             0.0000000000
     22967       408  TIP3      H1            -36.0031045712      -26.3940556455       37.7437175213  TIP3      216             0.0000000000
     22968       408  TIP3      H2            -36.3055517169      -24.9881366453       38.0850085799  TIP3      216             0.0000000000
     22969       409  TIP3      OH2           -28.9802857503      -25.4325135466       37.0422961350  TIP3      217             0.0000000000
     22970       409  TIP3      H1            -29.3032662097      -24.8232218424       36.3296812216  TIP3      217             0.0000000000
     22971       409  TIP3      H2            -29.0722337470      -26.3452387651       36.6694157188  TIP3      217             0.0000000000
     22972       410  TIP3      OH2           -23.2317769890      -25.3656945885       35.2062447650  TIP3      218             0.0000000000
     22973       410  TIP3      H1            -22.3282428741      -24.9742942954       35.2125247700  TIP3      218             0.0000000000
     22974       410  TIP3      H2            -23.7159735849      -24.5468725652       35.0047412530  TIP3      218             0.0000000000
     22975       411  TIP3      OH2           -34.1444002684      -28.5369413549       37.3733038413  TIP3      219             0.0000000000
     22976       411  TIP3      H1            -33.9943317394      -29.3665889766       37.8734233759  TIP3      219             0.0000000000
     22977       411  TIP3      H2            -34.1242990661      -27.8611867234       38.0690680244  TIP3      219             0.0000000000
     22978       412  TIP3      OH2           -30.9506001054      -29.4548797688       34.4355965499  TIP3      220             0.0000000000
     22979       412  TIP3      H1            -31.6789611633      -28.8676564119       34.7160169702  TIP3      220             0.0000000000
     22980       412  TIP3      H2            -30.3366821504      -28.7920893799       34.0322441260  TIP3      220             0.0000000000
     22981       413  TIP3      OH2           -25.4193658685      -26.2361482858       38.1846887852  TIP3      221             0.0000000000
     22982       413  TIP3      H1            -24.8722328981      -26.8200118437       37.6411729336  TIP3      221             0.0000000000
     22983       413  TIP3      H2            -25.8892408223      -26.8440161577       38.7760934441  TIP3      221             0.0000000000
     22984       414  TIP3      OH2           -29.6092878385      -31.4432696434       35.7708938247  TIP3      222             0.0000000000
     22985       414  TIP3      H1            -29.7118661054      -32.1594273910       35.1140000655  TIP3      222             0.0000000000
     22986       414  TIP3      H2            -29.7741436705      -30.6664082833       35.2104315938  TIP3      222             0.0000000000
     22987       415  TIP3      OH2           -29.6184210724      -33.0395685594       33.5425809627  TIP3      223             0.0000000000
     22988       415  TIP3      H1            -29.2319642909      -32.7695870611       32.6750026591  TIP3      223             0.0000000000
     22989       415  TIP3      H2            -30.5755002097      -32.9705632297       33.3512017020  TIP3      223             0.0000000000
     22990       416  TIP3      OH2           -29.0087753553      -27.6160943191       33.5507578688  TIP3      224             0.0000000000
     22991       416  TIP3      H1            -28.1058045524      -27.4902224635       33.2419459542  TIP3      224             0.0000000000
     22992       416  TIP3      H2            -29.4337846418      -26.8260647139       33.1461607305  TIP3      224             0.0000000000
     22993       417  TIP3      OH2           -24.1842741863      -30.1790150366       38.6401343826  TIP3      225             0.0000000000
     22994       417  TIP3      H1            -24.1323438858      -31.1040185643       38.3426068069  TIP3      225             0.0000000000
     22995       417  TIP3      H2            -23.2414328304      -29.9528165265       38.6795329985  TIP3      225             0.0000000000
     22996       418  TIP3      OH2           -22.6110280257      -26.8727058464       37.3022759363  TIP3      226             0.0000000000
     22997       418  TIP3      H1            -23.0288751929      -26.4113033281       36.5417848087  TIP3      226             0.0000000000
     22998       418  TIP3      H2            -21.7252186877      -27.0313529658       36.9191098663  TIP3      226             0.0000000000
     22999       419  TIP3      OH2           -32.0735599108      -30.6057211495       37.9988009674  TIP3      227             0.0000000000
     23000       419  TIP3      H1            -32.7451422946      -31.2470456133       37.6465064661  TIP3      227             0.0000000000
     23001       419  TIP3      H2            -31.5554427148      -30.3840441247       37.2064539220  TIP3      227             0.0000000000
     23002       420  TIP3      OH2           -29.0431550451      -35.5815215706       33.8259246122  TIP3      228             0.0000000000
     23003       420  TIP3      H1            -28.9732614011      -34.5941704482       33.8129193071  TIP3      228             0.0000000000
     23004       420  TIP3      H2            -29.9843412052      -35.6660317844       33.5964773218  TIP3      228             0.0000000000
     23005       421  TIP3      OH2           -27.6869567585      -31.3670701099       37.7721531293  TIP3      229             0.0000000000
     23006       421  TIP3      H1            -27.5807733806      -32.0968444509       38.4188847897  TIP3      229             0.0000000000
     23007       421  TIP3      H2            -28.4790675924      -31.6829974232       37.2889715230  TIP3      229             0.0000000000
     23008       422  TIP3      OH2           -25.1710711786      -32.2961634251       37.0233565627  TIP3      230             0.0000000000
     23009       422  TIP3      H1            -26.0770626726      -32.4974597366       37.3126719107  TIP3      230             0.0000000000
     23010       422  TIP3      H2            -24.6571978495      -32.8246741216       37.6638566665  TIP3      230             0.0000000000
     23011       423  TIP3      OH2           -23.1288199432      -33.0980001704       38.7436830326  TIP3      231             0.0000000000
     23012       423  TIP3      H1            -23.2275243720      -34.0687199390       38.5935500686  TIP3      231             0.0000000000
     23013       423  TIP3      H2            -23.4846001502      -32.9882774811       39.6598416868  TIP3      231             0.0000000000
     23014       424  TIP3      OH2           -33.7223979723      -32.7223967982       37.6011536562  TIP3      232             0.0000000000
     23015       424  TIP3      H1            -34.0569225345      -33.4564519411       37.0369970385  TIP3      232             0.0000000000
     23016       424  TIP3      H2            -33.9614967529      -33.0473251594       38.5089273720  TIP3      232             0.0000000000
     23017       425  TIP3      OH2           -29.2373296482      -36.6149009481       36.3078393845  TIP3      233             0.0000000000
     23018       425  TIP3      H1            -28.3555308860      -36.5237618048       36.6940384241  TIP3      233             0.0000000000
     23019       425  TIP3      H2            -29.1040944091      -36.2080407349       35.4228436690  TIP3      233             0.0000000000
     23020       426  TIP3      OH2           -28.7383510689      -34.1300263600       37.8244008431  TIP3      234             0.0000000000
     23021       426  TIP3      H1            -29.0813022803      -35.0161480232       37.6598817493  TIP3      234             0.0000000000
     23022       426  TIP3      H2            -29.3176799235      -33.8284880478       38.5654976492  TIP3      234             0.0000000000
     23023       427  TIP3      OH2           -29.4288194302      -18.1442244854       22.0536692603  TIP3      235             0.0000000000
     23024       427  TIP3      H1            -28.4852982387      -17.9052675169       22.0287148214  TIP3      235             0.0000000000
     23025       427  TIP3      H2            -29.8123486186      -17.4090105589       21.5607750499  TIP3      235             0.0000000000
     23026       428  TIP3      OH2           -35.1590654333      -24.7423497525       21.9500342354  TIP3      236             0.0000000000
     23027       428  TIP3      H1            -34.8783601079      -25.6364909617       22.2888110262  TIP3      236             0.0000000000
     23028       428  TIP3      H2            -34.6212616458      -24.6893394567       21.1670157649  TIP3      236             0.0000000000
     23029       429  TIP3      OH2            36.8789410654      -16.9523158184       26.9314975532  TIP3      237             0.0000000000
     23030       429  TIP3      H1             36.0566658796      -17.2275147132       26.4921020467  TIP3      237             0.0000000000
     23031       429  TIP3      H2             37.2766318757      -17.8356157703       27.0604455681  TIP3      237             0.0000000000
     23032       430  TIP3      OH2           -35.7049438713      -19.8866716120       28.1292657769  TIP3      238             0.0000000000
     23033       430  TIP3      H1            -35.7548114347      -20.7825086528       28.5436177247  TIP3      238             0.0000000000
     23034       430  TIP3      H2            -35.1927722064      -19.4269677047       28.8232247601  TIP3      238             0.0000000000
     23035       431  TIP3      OH2           -18.3010285233      -19.9655832490       31.0168069701  TIP3      239             0.0000000000
     23036       431  TIP3      H1            -18.3736831382      -19.1615089088       31.5703935619  TIP3      239             0.0000000000
     23037       431  TIP3      H2            -18.6807150088      -19.6655140225       30.1810538632  TIP3      239             0.0000000000
     23038       432  TIP3      OH2           -18.8923999546      -19.6366801677       34.1645940464  TIP3      240             0.0000000000
     23039       432  TIP3      H1            -19.0656624954      -20.4077246529       33.5805385085  TIP3      240             0.0000000000
     23040       432  TIP3      H2            -18.5807216549      -20.0786425162       34.9740571632  TIP3      240             0.0000000000
     23041       433  TIP3      OH2           -20.1287515992      -23.9171851710       38.9485235098  TIP3      241             0.0000000000
     23042       433  TIP3      H1            -20.9629821704      -23.9239031823       39.4752767537  TIP3      241             0.0000000000
     23043       433  TIP3      H2            -19.7422985076      -23.0747493152       39.2852075666  TIP3      241             0.0000000000
     23044       434  TIP3      OH2           -19.0090187005      -25.5988531180       23.5434360617  TIP3      242             0.0000000000
     23045       434  TIP3      H1            -18.2154121524      -25.0904359768       23.8332252296  TIP3      242             0.0000000000
     23046       434  TIP3      H2            -19.2285180495      -26.0626945779       24.3614761050  TIP3      242             0.0000000000
     23047       435  TIP3      OH2           -18.6099518231      -27.3363684054       26.4960440183  TIP3      243             0.0000000000
     23048       435  TIP3      H1            -19.4944929872      -27.7525776167       26.5638114967  TIP3      243             0.0000000000
     23049       435  TIP3      H2            -18.3250517831      -27.3405515213       27.4290796716  TIP3      243             0.0000000000
     23050       436  TIP3      OH2           -19.2231885753      -24.5266218179       30.8024954915  TIP3      244             0.0000000000
     23051       436  TIP3      H1            -18.5265452330      -25.1611252337       30.5601421930  TIP3      244             0.0000000000
     23052       436  TIP3      H2            -18.9318306241      -23.7359325894       30.3151204494  TIP3      244             0.0000000000
     23053       437  TIP3      OH2           -20.3085160444      -21.8936035067       33.2802950280  TIP3      245             0.0000000000
     23054       437  TIP3      H1            -20.8962523161      -21.3241870179       33.8145317773  TIP3      245             0.0000000000
     23055       437  TIP3      H2            -20.7126507405      -21.8379433800       32.3961298801  TIP3      245             0.0000000000
     23056       438  TIP3      OH2           -20.9437862551      -28.6384168827       26.7022525218  TIP3      246             0.0000000000
     23057       438  TIP3      H1            -21.2444682747      -29.5242965982       26.4335445309  TIP3      246             0.0000000000
     23058       438  TIP3      H2            -21.1736447888      -28.7133776289       27.6590969938  TIP3      246             0.0000000000
     23059       439  TIP3      OH2           -36.5970531475      -26.7035185651       30.6773467011  TIP3      247             0.0000000000
     23060       439  TIP3      H1            -36.4218062433      -27.0322569676       29.7598094061  TIP3      247             0.0000000000
     23061       439  TIP3      H2            -35.7309215326      -26.3156657028       30.8810856192  TIP3      247             0.0000000000
     23062       440  TIP3      OH2           -19.7624668764      -26.9926106763       36.3898299754  TIP3      248             0.0000000000
     23063       440  TIP3      H1            -19.4963079211      -27.8479901148       35.9944396050  TIP3      248             0.0000000000
     23064       440  TIP3      H2            -19.0525979799      -26.4015801365       36.0742360539  TIP3      248             0.0000000000
     23065       441  TIP3      OH2           -18.5304357318      -29.3500406753       36.9004372631  TIP3      249             0.0000000000
     23066       441  TIP3      H1            -19.4607895731      -29.6432328292       36.7684465509  TIP3      249             0.0000000000
     23067       441  TIP3      H2            -18.0291222044      -30.1989451815       36.9309324518  TIP3      249             0.0000000000
     23068       442  TIP3      OH2           -21.4458696479      -34.2208130587       20.4751688276  TIP3      250             0.0000000000
     23069       442  TIP3      H1            -20.6600695603      -33.7478650590       20.8332941006  TIP3      250             0.0000000000
     23070       442  TIP3      H2            -22.0622381123      -33.4907143128       20.3553177022  TIP3      250             0.0000000000
     23071       443  TIP3      OH2           -21.4064009231      -31.4206234816       25.7173544530  TIP3      251             0.0000000000
     23072       443  TIP3      H1            -21.1442336733      -32.3334004308       25.4724450999  TIP3      251             0.0000000000
     23073       443  TIP3      H2            -21.0229994696      -30.9494075759       24.9534060694  TIP3      251             0.0000000000
     23074       444  TIP3      OH2           -20.1969975071      -31.3127513120       30.6011551502  TIP3      252             0.0000000000
     23075       444  TIP3      H1            -19.3555205815      -30.8187853647       30.7673460972  TIP3      252             0.0000000000
     23076       444  TIP3      H2            -20.8405165330      -30.6509537638       30.9118768300  TIP3      252             0.0000000000
     23077       445  TIP3      OH2           -19.8488889204      -29.9741766199       33.8261695110  TIP3      253             0.0000000000
     23078       445  TIP3      H1            -20.5823379683      -29.6751391818       33.2450254762  TIP3      253             0.0000000000
     23079       445  TIP3      H2            -19.1979044465      -29.2877975403       33.5941706680  TIP3      253             0.0000000000
     23080       446  TIP3      OH2           -36.0429268812      -31.5094186193       37.4580199565  TIP3      254             0.0000000000
     23081       446  TIP3      H1            -35.1604399893      -31.8945070776       37.6365666544  TIP3      254             0.0000000000
     23082       446  TIP3      H2            -36.6058221884      -32.3048535252       37.6078219761  TIP3      254             0.0000000000
     23083       447  TIP3      OH2           -17.7626917906      -35.8055089640       38.6361284693  TIP3      255             0.0000000000
     23084       447  TIP3      H1            -17.8916327546      -36.6310310318       38.1460802415  TIP3      255             0.0000000000
     23085       447  TIP3      H2            -18.0430343083      -35.1379243094       37.9815391751  TIP3      255             0.0000000000
     23086       448  TIP3      OH2           -20.4582160143      -33.9902642901       25.1395156688  TIP3      256             0.0000000000
     23087       448  TIP3      H1            -20.1753415381      -34.1561201426       26.0654655036  TIP3      256             0.0000000000
     23088       448  TIP3      H2            -21.0832463116      -34.7269272522       25.0121000541  TIP3      256             0.0000000000
     23089       449  TIP3      OH2           -35.1767910636      -33.0576826249       30.0080707911  TIP3      257             0.0000000000
     23090       449  TIP3      H1            -34.7138683304      -33.9049773247       30.0970686704  TIP3      257             0.0000000000
     23091       449  TIP3      H2            -34.4389426191      -32.4337117115       30.1816778329  TIP3      257             0.0000000000
     23092       450  TIP3      OH2           -36.3976465853      -29.2941754921       31.4805464495  TIP3      258             0.0000000000
     23093       450  TIP3      H1            -35.8987561336      -29.4028943441       30.6499655998  TIP3      258             0.0000000000
     23094       450  TIP3      H2            -36.5607841194      -28.3241915989       31.4369857428  TIP3      258             0.0000000000
     23095       451  TIP3      OH2           -18.5159400839      -34.1095527707       36.5889579989  TIP3      259             0.0000000000
     23096       451  TIP3      H1            -19.2243146585      -33.7059262386       37.1140377253  TIP3      259             0.0000000000
     23097       451  TIP3      H2            -19.0258837032      -34.7481111707       36.0350318281  TIP3      259             0.0000000000
     23098       452  TIP3      OH2           -19.1533810146      -33.6251262823       21.6509012476  TIP3      260             0.0000000000
     23099       452  TIP3      H1            -18.5891019914      -34.4249031271       21.5864020851  TIP3      260             0.0000000000
     23100       452  TIP3      H2            -18.5345907007      -33.0406050410       22.1221087601  TIP3      260             0.0000000000
     23101       453  TIP3      OH2           -35.7545803696      -33.7920041356       24.3611910835  TIP3      261             0.0000000000
     23102       453  TIP3      H1            -36.6242321147      -33.5500950956       24.7150358275  TIP3      261             0.0000000000
     23103       453  TIP3      H2            -35.4916001044      -32.9152553702       24.0119489582  TIP3      261             0.0000000000
     23104       454  TIP3      OH2           -22.0692221711      -18.5991471216       26.5313278173  TIP3      262             0.0000000000
     23105       454  TIP3      H1            -21.2579059554      -18.6350895856       25.9874418083  TIP3      262             0.0000000000
     23106       454  TIP3      H2            -21.7139416254      -18.3185461034       27.4053343229  TIP3      262             0.0000000000
     23107       455  TIP3      OH2            36.8301670325      -35.4832527262       33.1051198524  TIP3      263             0.0000000000
     23108       455  TIP3      H1             35.9394188857      -35.8219907585       32.9071154499  TIP3      263             0.0000000000
     23109       455  TIP3      H2             36.8134913418      -34.6948030108       32.5404952474  TIP3      263             0.0000000000
     23110       456  TIP3      OH2           -34.0458380050      -22.1959194925       37.6928807428  TIP3      264             0.0000000000
     23111       456  TIP3      H1            -34.4855887356      -21.7843619303       36.9383290271  TIP3      264             0.0000000000
     23112       456  TIP3      H2            -34.7619917046      -22.2360952513       38.3402305505  TIP3      264             0.0000000000
     23113       457  TIP3      OH2           -31.1037863241      -20.5832685215       33.5945695932  TIP3      265             0.0000000000
     23114       457  TIP3      H1            -31.2017450556      -19.6464095192       33.3285208896  TIP3      265             0.0000000000
     23115       457  TIP3      H2            -30.1215334190      -20.6619013936       33.6439869103  TIP3      265             0.0000000000
     23116       458  TIP3      OH2           -27.3437356292      -19.8057603081       36.3758810375  TIP3      266             0.0000000000
     23117       458  TIP3      H1            -27.1660211847      -19.9157223987       37.3318456712  TIP3      266             0.0000000000
     23118       458  TIP3      H2            -26.4872116512      -19.4497163870       36.0860736975  TIP3      266             0.0000000000
     23119       459  TIP3      OH2           -25.1368906884      -18.2006213719       35.6559722884  TIP3      267             0.0000000000
     23120       459  TIP3      H1            -24.4024877763      -18.6280549528       35.1806935567  TIP3      267             0.0000000000
     23121       459  TIP3      H2            -24.7121476338      -17.8304515191       36.4543004279  TIP3      267             0.0000000000
     23122       460  TIP3      OH2           -19.6499023258      -35.8946080739       34.8977608259  TIP3      268             0.0000000000
     23123       460  TIP3      H1            -20.3733329974      -35.5527187285       34.3533591183  TIP3      268             0.0000000000
     23124       460  TIP3      H2            -19.3962221190      -36.7325199515       34.4571954464  TIP3      268             0.0000000000
     23125       461  TIP3      OH2           -33.7150312174      -17.6215856819       33.4425943090  TIP3      269             0.0000000000
     23126       461  TIP3      H1            -34.5623167659      -17.3780231064       33.0127240123  TIP3      269             0.0000000000
     23127       461  TIP3      H2            -34.0368330414      -17.8940800312       34.3115520874  TIP3      269             0.0000000000
     23128       462  TIP3      OH2           -31.2830922792      -18.0999320098       32.4202301468  TIP3      270             0.0000000000
     23129       462  TIP3      H1            -32.2558005258      -18.0968213938       32.6068965549  TIP3      270             0.0000000000
     23130       462  TIP3      H2            -31.1860090188      -17.4361941377       31.7020840033  TIP3      270             0.0000000000
     23131       463  TIP3      OH2           -27.0680550865      -18.6878805589       31.9183570075  TIP3      271             0.0000000000
     23132       463  TIP3      H1            -27.5750726630      -18.2090806215       31.2432646940  TIP3      271             0.0000000000
     23133       463  TIP3      H2            -26.8396736501      -17.9408212891       32.5158092102  TIP3      271             0.0000000000
     23134       464  TIP3      OH2           -24.9924308821      -19.8962603068       33.1050666888  TIP3      272             0.0000000000
     23135       464  TIP3      H1            -25.8120369429      -19.5210354839       32.7107232739  TIP3      272             0.0000000000
     23136       464  TIP3      H2            -24.3347192355      -19.2602845728       32.7183679519  TIP3      272             0.0000000000
     23137       465  TIP3      OH2           -23.2529172586      -17.9295704102       32.5618886180  TIP3      273             0.0000000000
     23138       465  TIP3      H1            -23.0273092364      -17.2850103100       33.2439665243  TIP3      273             0.0000000000
     23139       465  TIP3      H2            -22.3801774284      -17.9404665535       32.0942412361  TIP3      273             0.0000000000
     23140       466  TIP3      OH2           -34.2184978502      -19.1001348507       30.5332215535  TIP3      274             0.0000000000
     23141       466  TIP3      H1            -34.4493463344      -19.7520687084       31.2261621571  TIP3      274             0.0000000000
     23142       466  TIP3      H2            -33.3504152265      -19.4712976908       30.2584239592  TIP3      274             0.0000000000
     23143       467  TIP3      OH2           -32.1413242852      -20.3501177833       29.1980190903  TIP3      275             0.0000000000
     23144       467  TIP3      H1            -32.3570917162      -21.2629981145       29.4558805485  TIP3      275             0.0000000000
     23145       467  TIP3      H2            -31.2701621985      -20.2516590292       29.6593569805  TIP3      275             0.0000000000
     23146       468  TIP3      OH2           -29.9001520056      -20.3103456896       30.5967418924  TIP3      276             0.0000000000
     23147       468  TIP3      H1            -29.7260660311      -21.2716244806       30.5042630968  TIP3      276             0.0000000000
     23148       468  TIP3      H2            -29.6624892844      -20.1870049510       31.5299889106  TIP3      276             0.0000000000
     23149       469  TIP3      OH2           -26.3271318874      -33.6234241833       29.1190088705  TIP3      277             0.0000000000
     23150       469  TIP3      H1            -26.8811532444      -34.3721869545       29.4344116547  TIP3      277             0.0000000000
     23151       469  TIP3      H2            -25.4865532013      -34.0804174431       28.9446124020  TIP3      277             0.0000000000
     23152       470  TIP3      OH2           -21.1544793973      -36.6518510668       28.6707006624  TIP3      278             0.0000000000
     23153       470  TIP3      H1            -20.4145263254      -36.0707885371       28.4105567081  TIP3      278             0.0000000000
     23154       470  TIP3      H2            -21.8283812742      -36.0252532660       28.9385031752  TIP3      278             0.0000000000
     23155       471  TIP3      OH2           -19.5780656841      -34.7312824436       27.5558985592  TIP3      279             0.0000000000
     23156       471  TIP3      H1            -18.8159944378      -35.3499361295       27.6429085698  TIP3      279             0.0000000000
     23157       471  TIP3      H2            -19.0634605243      -33.8896497978       27.6225635832  TIP3      279             0.0000000000
     23158       472  TIP3      OH2           -33.2382369579      -35.8872388478       27.0996806319  TIP3      280             0.0000000000
     23159       472  TIP3      H1            -34.2080432539      -36.0131410310       27.1416995445  TIP3      280             0.0000000000
     23160       472  TIP3      H2            -32.9637142885      -36.7547768588       27.4844479037  TIP3      280             0.0000000000
     23161       473  TIP3      OH2           -29.0974507009      -35.3212591939       26.8078503847  TIP3      281             0.0000000000
     23162       473  TIP3      H1            -28.1628744824      -35.2298113073       26.5501487323  TIP3      281             0.0000000000
     23163       473  TIP3      H2            -28.9742940630      -35.4253367837       27.7643299069  TIP3      281             0.0000000000
     23164       474  TIP3      OH2           -24.4153897615      -35.6177436697       28.3900550140  TIP3      282             0.0000000000
     23165       474  TIP3      H1            -24.3614869324      -35.2209801526       27.5045242532  TIP3      282             0.0000000000
     23166       474  TIP3      H2            -24.4093124618      -36.5687079038       28.1747929404  TIP3      282             0.0000000000
     23167       475  TIP3      OH2           -22.5490194120      -35.8770846223       24.1949611455  TIP3      283             0.0000000000
     23168       475  TIP3      H1            -23.2229310851      -35.4357546939       23.6542791017  TIP3      283             0.0000000000
     23169       475  TIP3      H2            -22.8599049743      -36.7919687550       24.2539227838  TIP3      283             0.0000000000
     23170       476  TIP3      OH2           -36.0292483560      -18.5895664274       24.8304834032  TIP3      284             0.0000000000
     23171       476  TIP3      H1            -36.6871336206      -18.7748355074       24.1335294347  TIP3      284             0.0000000000
     23172       476  TIP3      H2            -35.7406140423      -17.7237735896       24.5034786785  TIP3      284             0.0000000000
     23173       477  TIP3      OH2           -28.4953295552      -34.5846072634       23.8068998349  TIP3      285             0.0000000000
     23174       477  TIP3      H1            -28.8320558155      -34.7574626217       24.6975555733  TIP3      285             0.0000000000
     23175       477  TIP3      H2            -27.8974037582      -33.8248714643       23.9560609816  TIP3      285             0.0000000000
     23176       478  TIP3      OH2           -26.5379783810      -18.3583755483       21.8372137249  TIP3      286             0.0000000000
     23177       478  TIP3      H1            -25.6126544575      -18.2296973009       21.5962165810  TIP3      286             0.0000000000
     23178       478  TIP3      H2            -26.7277396064      -19.1688720298       21.3238457975  TIP3      286             0.0000000000
     23179       479  TIP3      OH2           -19.9230960223      -19.3202264886       24.8795735324  TIP3      287             0.0000000000
     23180       479  TIP3      H1            -20.0234566303      -20.1577144601       24.3684705765  TIP3      287             0.0000000000
     23181       479  TIP3      H2            -19.7658179169      -18.7265766327       24.1097495503  TIP3      287             0.0000000000
     23182       480  TIP3      OH2           -34.4055129875      -35.0073542160       36.5102692024  TIP3      288             0.0000000000
     23183       480  TIP3      H1            -34.8951976798      -35.8346197828       36.4824130556  TIP3      288             0.0000000000
     23184       480  TIP3      H2            -33.6529560484      -35.1958012911       37.1064681899  TIP3      288             0.0000000000
     23185       481  TIP3      OH2           -32.1491182616      -35.6371090297       38.3458509583  TIP3      289             0.0000000000
     23186       481  TIP3      H1            -31.4816486832      -35.2585869714       37.7498203163  TIP3      289             0.0000000000
     23187       481  TIP3      H2            -31.6670440228      -36.3593091151       38.8046305358  TIP3      289             0.0000000000
     23188       482  TIP3      OH2           -33.1831792750      -18.1302952984       20.9236180278  TIP3      290             0.0000000000
     23189       482  TIP3      H1            -34.1037228790      -18.3990181908       21.0070059703  TIP3      290             0.0000000000
     23190       482  TIP3      H2            -32.8889336310      -18.4582909015       20.0670349380  TIP3      290             0.0000000000
     23191       483  TIP3      OH2           -23.5958679526      -35.7296205225       38.1424371869  TIP3      291             0.0000000000
     23192       483  TIP3      H1            -23.8423278262      -36.5602350719       38.5966481410  TIP3      291             0.0000000000
     23193       483  TIP3      H2            -23.2015218957      -36.0609164464       37.3298085029  TIP3      291             0.0000000000
     23194       484  TIP3      OH2           -20.4155386732      -20.4329890725       36.8750267620  TIP3      292             0.0000000000
     23195       484  TIP3      H1            -20.9679864506      -20.3544559166       36.0664943907  TIP3      292             0.0000000000
     23196       484  TIP3      H2            -20.4500718938      -19.5198361227       37.2425829856  TIP3      292             0.0000000000
     23197       485  TIP3      OH2            -5.9635016343      -26.7778172491       26.9786006128  TIP3      293             0.0000000000
     23198       485  TIP3      H1             -5.9897841824      -25.8046530439       26.9107680425  TIP3      293             0.0000000000
     23199       485  TIP3      H2             -6.1595172337      -27.0175304158       26.0549418397  TIP3      293             0.0000000000
     23200       486  TIP3      OH2            -6.9907725175      -27.7738623884       30.3488907621  TIP3      294             0.0000000000
     23201       486  TIP3      H1             -7.0423963871      -28.1034765170       31.2695174391  TIP3      294             0.0000000000
     23202       486  TIP3      H2             -7.6962085813      -28.2711757055       29.8968069269  TIP3      294             0.0000000000
     23203       487  TIP3      OH2           -15.0309786353      -27.7025372359       31.6568305670  TIP3      295             0.0000000000
     23204       487  TIP3      H1            -14.9652081827      -28.4932245588       32.2187117131  TIP3      295             0.0000000000
     23205       487  TIP3      H2            -14.5333118841      -27.0631543086       32.2062013927  TIP3      295             0.0000000000
     23206       488  TIP3      OH2            -3.9476987951      -24.4642023536       28.9346600449  TIP3      296             0.0000000000
     23207       488  TIP3      H1             -4.1342106005      -25.2619841357       29.4489336154  TIP3      296             0.0000000000
     23208       488  TIP3      H2             -3.6492909679      -23.8631358294       29.6428564960  TIP3      296             0.0000000000
     23209       489  TIP3      OH2           -13.8526363321      -23.1329415897       29.9449958120  TIP3      297             0.0000000000
     23210       489  TIP3      H1            -14.1624386421      -24.0625189084       29.8987178233  TIP3      297             0.0000000000
     23211       489  TIP3      H2            -12.9003175006      -23.3102394851       29.8702906516  TIP3      297             0.0000000000
     23212       490  TIP3      OH2           -17.1798862402      -29.7540533167       25.6534438508  TIP3      298             0.0000000000
     23213       490  TIP3      H1            -17.4087437713      -28.8547717998       25.9523362908  TIP3      298             0.0000000000
     23214       490  TIP3      H2            -18.0017890925      -30.2295966271       25.8419359673  TIP3      298             0.0000000000
     23215       491  TIP3      OH2           -16.5564935182      -27.3616866061       28.3091192500  TIP3      299             0.0000000000
     23216       491  TIP3      H1            -16.2235208771      -28.2810342849       28.4302900546  TIP3      299             0.0000000000
     23217       491  TIP3      H2            -16.0824930741      -27.0417271075       27.5339754482  TIP3      299             0.0000000000
     23218       492  TIP3      OH2            -6.4094304736      -19.1446375171       28.5921521221  TIP3      300             0.0000000000
     23219       492  TIP3      H1             -5.7034473116      -19.6244780414       28.1175998026  TIP3      300             0.0000000000
     23220       492  TIP3      H2             -6.5519233078      -19.8146965946       29.2794834291  TIP3      300             0.0000000000
     23221       493  TIP3      OH2            -9.1129532161      -25.0493955486       31.3047187488  TIP3      301             0.0000000000
     23222       493  TIP3      H1             -8.9144515362      -25.2689231819       30.3837717624  TIP3      301             0.0000000000
     23223       493  TIP3      H2             -8.2300971288      -24.7190386990       31.5957570230  TIP3      301             0.0000000000
     23224       494  TIP3      OH2            -0.4642515673      -33.6809554110       31.1384410075  TIP3      302             0.0000000000
     23225       494  TIP3      H1             -0.1684040715      -33.0382681044       31.8179428828  TIP3      302             0.0000000000
     23226       494  TIP3      H2              0.0532524135      -33.3888017230       30.3723223181  TIP3      302             0.0000000000
     23227       495  TIP3      OH2            -5.3749730154      -30.3426454446       31.3882723713  TIP3      303             0.0000000000
     23228       495  TIP3      H1             -5.2178636547      -31.2865011590       31.5692549721  TIP3      303             0.0000000000
     23229       495  TIP3      H2             -5.4697402653      -30.3307037125       30.4145039618  TIP3      303             0.0000000000
     23230       496  TIP3      OH2           -12.4734920868      -32.4563787161       28.2046337033  TIP3      304             0.0000000000
     23231       496  TIP3      H1            -12.1662815432      -31.7502829112       27.6090937771  TIP3      304             0.0000000000
     23232       496  TIP3      H2            -12.9363526758      -33.0245865688       27.5395528721  TIP3      304             0.0000000000
     23233       497  TIP3      OH2            -4.9936200792      -32.5138354281       27.1077814418  TIP3      305             0.0000000000
     23234       497  TIP3      H1             -4.2958066894      -32.6229028320       27.7934875526  TIP3      305             0.0000000000
     23235       497  TIP3      H2             -4.4658899621      -32.0131672681       26.4688575461  TIP3      305             0.0000000000
     23236       498  TIP3      OH2           -16.1544825713      -29.9852851238       28.8504491905  TIP3      306             0.0000000000
     23237       498  TIP3      H1            -15.4542692261      -30.2128498473       29.4819270206  TIP3      306             0.0000000000
     23238       498  TIP3      H2            -15.7664630187      -30.3962541007       28.0400496254  TIP3      306             0.0000000000
     23239       499  TIP3      OH2           -10.9985774108      -28.3664051146       28.5384387951  TIP3      307             0.0000000000
     23240       499  TIP3      H1            -10.0606838071      -28.6213809900       28.6833491983  TIP3      307             0.0000000000
     23241       499  TIP3      H2            -11.2224957756      -29.0696998338       27.9050529347  TIP3      307             0.0000000000
     23242       500  TIP3      OH2            -0.1528451230      -32.2454430592       33.5614948306  TIP3      308             0.0000000000
     23243       500  TIP3      H1             -0.6484089146      -31.4302556462       33.3291803837  TIP3      308             0.0000000000
     23244       500  TIP3      H2              0.1644112838      -32.0236320886       34.4480998433  TIP3      308             0.0000000000
     23245       501  TIP3      OH2           -13.3318263297      -33.3994494065       32.5184631923  TIP3      309             0.0000000000
     23246       501  TIP3      H1            -13.6651886924      -32.9813499786       31.6963025728  TIP3      309             0.0000000000
     23247       501  TIP3      H2            -14.1470284783      -33.3280294152       33.0743272523  TIP3      309             0.0000000000
     23248       502  TIP3      OH2            -6.4073971021      -24.1119179412       26.0417844389  TIP3      310             0.0000000000
     23249       502  TIP3      H1             -5.8656374899      -23.5213193550       25.4952658930  TIP3      310             0.0000000000
     23250       502  TIP3      H2             -6.8350278726      -23.4182316545       26.5893240347  TIP3      310             0.0000000000
     23251       503  TIP3      OH2           -11.4872602526      -25.8567482157       32.0204758619  TIP3      311             0.0000000000
     23252       503  TIP3      H1            -12.0348208214      -25.1041059348       32.3377178940  TIP3      311             0.0000000000
     23253       503  TIP3      H2            -10.6391140037      -25.4178601256       31.7799184044  TIP3      311             0.0000000000
     23254       504  TIP3      OH2            -3.0010881890      -31.9866783876       28.7312550010  TIP3      312             0.0000000000
     23255       504  TIP3      H1             -2.4673681215      -32.7281736536       29.0410561081  TIP3      312             0.0000000000
     23256       504  TIP3      H2             -2.5144616419      -31.2624603200       29.1672576701  TIP3      312             0.0000000000
     23257       505  TIP3      OH2           -13.9321259689      -31.6970636408       30.2954467881  TIP3      313             0.0000000000
     23258       505  TIP3      H1            -13.3052237904      -31.0458331194       30.6758050137  TIP3      313             0.0000000000
     23259       505  TIP3      H2            -13.4087642819      -32.0490768101       29.5347437416  TIP3      313             0.0000000000
     23260       506  TIP3      OH2           -12.6574719749      -23.7596789374       33.1156008926  TIP3      314             0.0000000000
     23261       506  TIP3      H1            -12.8084528919      -23.0291904114       32.4967587086  TIP3      314             0.0000000000
     23262       506  TIP3      H2            -13.5046509864      -23.7574623651       33.6305940765  TIP3      314             0.0000000000
     23263       507  TIP3      OH2           -16.7194226839      -24.0873757233       23.9820163177  TIP3      315             0.0000000000
     23264       507  TIP3      H1            -15.8425171365      -24.0717038825       23.5297611741  TIP3      315             0.0000000000
     23265       507  TIP3      H2            -16.5811475623      -23.4484326457       24.7164556064  TIP3      315             0.0000000000
     23266       508  TIP3      OH2            -2.9939981814      -22.5969077214       30.7907355139  TIP3      316             0.0000000000
     23267       508  TIP3      H1             -3.9435336236      -22.3923786668       30.9647820742  TIP3      316             0.0000000000
     23268       508  TIP3      H2             -2.7563497760      -21.7313214828       30.4218021273  TIP3      316             0.0000000000
     23269       509  TIP3      OH2            -2.8874637071      -33.6349218295       32.7438252579  TIP3      317             0.0000000000
     23270       509  TIP3      H1             -3.6168725441      -33.3869947818       32.1427782555  TIP3      317             0.0000000000
     23271       509  TIP3      H2             -2.1297023294      -33.6756289173       32.1246741054  TIP3      317             0.0000000000
     23272       510  TIP3      OH2            -9.3761018865      -35.5490675975       29.6416608515  TIP3      318             0.0000000000
     23273       510  TIP3      H1             -9.1482704339      -36.2079255820       30.3090046525  TIP3      318             0.0000000000
     23274       510  TIP3      H2            -10.1980724351      -35.1550323845       30.0303157438  TIP3      318             0.0000000000
     23275       511  TIP3      OH2            -4.6771230056      -20.9003848391       27.6129066082  TIP3      319             0.0000000000
     23276       511  TIP3      H1             -4.3961669597      -21.6798361154       27.0854614039  TIP3      319             0.0000000000
     23277       511  TIP3      H2             -3.8997638761      -20.3016974171       27.4534218547  TIP3      319             0.0000000000
     23278       512  TIP3      OH2            -3.7078346972      -22.9636144153       26.0982994172  TIP3      320             0.0000000000
     23279       512  TIP3      H1             -3.3192476398      -23.5704840587       25.4558908297  TIP3      320             0.0000000000
     23280       512  TIP3      H2             -3.8556824877      -23.5471402652       26.8666889725  TIP3      320             0.0000000000
     23281       513  TIP3      OH2            -2.0452416618      -24.2174723869       34.6194486198  TIP3      321             0.0000000000
     23282       513  TIP3      H1             -1.8569696394      -24.9884248271       34.0369554731  TIP3      321             0.0000000000
     23283       513  TIP3      H2             -1.8599644802      -23.4918437355       33.9930068139  TIP3      321             0.0000000000
     23284       514  TIP3      OH2            -7.0585545665      -27.2415868239       24.4184279294  TIP3      322             0.0000000000
     23285       514  TIP3      H1             -6.9885296738      -26.2773769349       24.3441898741  TIP3      322             0.0000000000
     23286       514  TIP3      H2             -6.3470832176      -27.4716260587       23.7550757842  TIP3      322             0.0000000000
     23287       515  TIP3      OH2            -0.0453531534      -27.8470164620       32.4814408182  TIP3      323             0.0000000000
     23288       515  TIP3      H1             -0.6773662403      -27.0996320525       32.4728941052  TIP3      323             0.0000000000
     23289       515  TIP3      H2              0.6292986946      -27.4995544058       31.8564468168  TIP3      323             0.0000000000
     23290       516  TIP3      OH2            -4.0646374678      -28.7310152143       34.4731161286  TIP3      324             0.0000000000
     23291       516  TIP3      H1             -4.0760749376      -27.7882702363       34.7046801560  TIP3      324             0.0000000000
     23292       516  TIP3      H2             -4.7832027468      -28.7377760662       33.8233430130  TIP3      324             0.0000000000
     23293       517  TIP3      OH2           -12.3188464404      -26.5465150185       27.1915716967  TIP3      325             0.0000000000
     23294       517  TIP3      H1            -12.8761645171      -27.0386275075       26.5420362879  TIP3      325             0.0000000000
     23295       517  TIP3      H2            -11.7709872478      -27.2460470519       27.6041631756  TIP3      325             0.0000000000
     23296       518  TIP3      OH2           -10.9756807563      -23.3140296667       29.8711029679  TIP3      326             0.0000000000
     23297       518  TIP3      H1            -10.7994410989      -23.4567761848       28.9261579468  TIP3      326             0.0000000000
     23298       518  TIP3      H2            -10.3116935771      -23.8540136211       30.3324198037  TIP3      326             0.0000000000
     23299       519  TIP3      OH2           -12.2281380864      -28.0513706379       30.9134518021  TIP3      327             0.0000000000
     23300       519  TIP3      H1            -11.8192954090      -27.9883405458       30.0233166121  TIP3      327             0.0000000000
     23301       519  TIP3      H2            -11.9692824952      -27.1902828042       31.3149165230  TIP3      327             0.0000000000
     23302       520  TIP3      OH2            -5.4846504755      -22.1054318229       31.6079658103  TIP3      328             0.0000000000
     23303       520  TIP3      H1             -5.9488308101      -21.4126548008       32.1193162790  TIP3      328             0.0000000000
     23304       520  TIP3      H2             -5.8178929899      -22.9014583939       32.0580184878  TIP3      328             0.0000000000
     23305       521  TIP3      OH2           -11.1003989617      -23.5578161667       35.2992710605  TIP3      329             0.0000000000
     23306       521  TIP3      H1            -11.8218617520      -23.0311829257       35.7132370506  TIP3      329             0.0000000000
     23307       521  TIP3      H2            -11.5160133187      -23.7355533317       34.4231615462  TIP3      329             0.0000000000
     23308       522  TIP3      OH2           -14.2428545502      -27.2423213534       34.2952759857  TIP3      330             0.0000000000
     23309       522  TIP3      H1            -14.0279119687      -26.5446230480       34.9386556081  TIP3      330             0.0000000000
     23310       522  TIP3      H2            -15.0279868041      -27.5864412785       34.7646792810  TIP3      330             0.0000000000
     23311       523  TIP3      OH2            -7.2270068109      -21.7152851563       26.9599401986  TIP3      331             0.0000000000
     23312       523  TIP3      H1             -6.4889798651      -21.1117736202       27.1615632515  TIP3      331             0.0000000000
     23313       523  TIP3      H2             -7.8465869187      -21.1627538580       26.4749697797  TIP3      331             0.0000000000
     23314       524  TIP3      OH2           -12.7918985956      -21.7536001326       36.3982431328  TIP3      332             0.0000000000
     23315       524  TIP3      H1            -12.9647240752      -21.3479456376       35.5238096112  TIP3      332             0.0000000000
     23316       524  TIP3      H2            -13.7161559770      -21.9958397010       36.6359483029  TIP3      332             0.0000000000
     23317       525  TIP3      OH2           -14.0502654271      -27.5402403475       25.3057396808  TIP3      333             0.0000000000
     23318       525  TIP3      H1            -14.1055943831      -26.8737737151       24.5967804827  TIP3      333             0.0000000000
     23319       525  TIP3      H2            -14.3581227189      -28.3318609456       24.8586635139  TIP3      333             0.0000000000
     23320       526  TIP3      OH2            -0.1746184729      -21.6634879992       21.4060204440  TIP3      334             0.0000000000
     23321       526  TIP3      H1              0.1565099342      -20.7421924289       21.4819810183  TIP3      334             0.0000000000
     23322       526  TIP3      H2              0.6486732371      -22.1696367581       21.2536477449  TIP3      334             0.0000000000
     23323       527  TIP3      OH2           -16.9856146435      -25.0692271920       33.8380622996  TIP3      335             0.0000000000
     23324       527  TIP3      H1            -17.5739747312      -25.1766752177       33.0715324145  TIP3      335             0.0000000000
     23325       527  TIP3      H2            -16.6505824390      -25.9834236949       33.9078225993  TIP3      335             0.0000000000
     23326       528  TIP3      OH2           -17.4063741968      -22.3981327624       30.2542633720  TIP3      336             0.0000000000
     23327       528  TIP3      H1            -16.6490196996      -22.7219395887       30.7641683810  TIP3      336             0.0000000000
     23328       528  TIP3      H2            -17.6377486775      -21.5949012363       30.7633634640  TIP3      336             0.0000000000
     23329       529  TIP3      OH2             0.5758153768      -21.5966111656       36.1984893863  TIP3      337             0.0000000000
     23330       529  TIP3      H1              0.3965617070      -22.5455717403       36.1007973409  TIP3      337             0.0000000000
     23331       529  TIP3      H2             -0.2490090255      -21.3068421865       36.6590663065  TIP3      337             0.0000000000
     23332       530  TIP3      OH2            -8.4362119762      -22.4214061765       35.2358831231  TIP3      338             0.0000000000
     23333       530  TIP3      H1             -8.3319819664      -21.7241586152       35.9060140722  TIP3      338             0.0000000000
     23334       530  TIP3      H2             -9.3875869316      -22.6554790262       35.2920678154  TIP3      338             0.0000000000
     23335       531  TIP3      OH2            -7.7547027794      -18.4038594652       24.4708047669  TIP3      339             0.0000000000
     23336       531  TIP3      H1             -7.7596852574      -18.2248895577       23.5151402047  TIP3      339             0.0000000000
     23337       531  TIP3      H2             -7.8091248050      -17.5080310564       24.8473718088  TIP3      339             0.0000000000
     23338       532  TIP3      OH2           -14.2215741082      -19.8642448635       26.6913075347  TIP3      340             0.0000000000
     23339       532  TIP3      H1            -13.9865062276      -20.0599429033       27.6244445574  TIP3      340             0.0000000000
     23340       532  TIP3      H2            -15.1609223321      -20.1060201947       26.6241555160  TIP3      340             0.0000000000
     23341       533  TIP3      OH2            -5.2206214917      -19.3482712147       24.8179789446  TIP3      341             0.0000000000
     23342       533  TIP3      H1             -6.1939100275      -19.2859303984       24.6793950754  TIP3      341             0.0000000000
     23343       533  TIP3      H2             -5.1224974634      -20.0144804206       25.5140279305  TIP3      341             0.0000000000
     23344       534  TIP3      OH2            -2.3247391167      -30.1363935550       36.5159506876  TIP3      342             0.0000000000
     23345       534  TIP3      H1             -2.7971576971      -29.7512274987       35.7561950621  TIP3      342             0.0000000000
     23346       534  TIP3      H2             -2.4137402266      -31.0985201035       36.3363571431  TIP3      342             0.0000000000
     23347       535  TIP3      OH2           -14.7765443043      -23.6580723944       34.7434957601  TIP3      343             0.0000000000
     23348       535  TIP3      H1            -14.7783188799      -24.1032182001       35.6125837639  TIP3      343             0.0000000000
     23349       535  TIP3      H2            -15.6633006652      -23.9070183728       34.3933455933  TIP3      343             0.0000000000
     23350       536  TIP3      OH2           -11.6559206098      -34.6111209320       30.6811876790  TIP3      344             0.0000000000
     23351       536  TIP3      H1            -12.3256516731      -34.8969197162       30.0542890855  TIP3      344             0.0000000000
     23352       536  TIP3      H2            -12.1704139450      -34.4354806698       31.4893520863  TIP3      344             0.0000000000
     23353       537  TIP3      OH2            -7.0158735088      -35.7310203598       34.2505777701  TIP3      345             0.0000000000
     23354       537  TIP3      H1             -7.1054323227      -35.8645491329       35.2071485231  TIP3      345             0.0000000000
     23355       537  TIP3      H2             -7.9044694601      -35.4586453072       33.9627698867  TIP3      345             0.0000000000
     23356       538  TIP3      OH2            -4.8655305650      -31.3010492428       34.8217858374  TIP3      346             0.0000000000
     23357       538  TIP3      H1             -5.4221621522      -31.5127546209       35.6165548566  TIP3      346             0.0000000000
     23358       538  TIP3      H2             -4.7415612160      -30.3369177587       34.8716592902  TIP3      346             0.0000000000
     23359       539  TIP3      OH2           -12.1169846764      -30.4274749230       31.9910822017  TIP3      347             0.0000000000
     23360       539  TIP3      H1            -12.9484992254      -30.4555413307       32.4921406432  TIP3      347             0.0000000000
     23361       539  TIP3      H2            -12.1745991160      -29.5162765313       31.6013435448  TIP3      347             0.0000000000
     23362       540  TIP3      OH2           -12.2165719449      -30.2328128337       26.6135444640  TIP3      348             0.0000000000
     23363       540  TIP3      H1            -13.1688794244      -30.4810772434       26.5950438053  TIP3      348             0.0000000000
     23364       540  TIP3      H2            -11.9499357242      -30.3341770389       25.6748994060  TIP3      348             0.0000000000
     23365       541  TIP3      OH2            -6.8813432477      -29.9742748361       24.7885549669  TIP3      349             0.0000000000
     23366       541  TIP3      H1             -7.0331889614      -29.0084536124       24.8206305782  TIP3      349             0.0000000000
     23367       541  TIP3      H2             -6.0243014421      -30.0219789496       24.3440976240  TIP3      349             0.0000000000
     23368       542  TIP3      OH2            -7.6156586506      -29.1871231710       36.8560233365  TIP3      350             0.0000000000
     23369       542  TIP3      H1             -8.1535677299      -29.9076990378       37.2416514000  TIP3      350             0.0000000000
     23370       542  TIP3      H2             -6.7930879472      -29.2839766379       37.3752624939  TIP3      350             0.0000000000
     23371       543  TIP3      OH2            -5.5381676727      -29.6872352482       28.5754174034  TIP3      351             0.0000000000
     23372       543  TIP3      H1             -5.7233639145      -28.8704973022       28.0756567157  TIP3      351             0.0000000000
     23373       543  TIP3      H2             -5.8266712442      -30.3568042995       27.9322496302  TIP3      351             0.0000000000
     23374       544  TIP3      OH2           -14.9320061010      -30.2723559506       33.2397194317  TIP3      352             0.0000000000
     23375       544  TIP3      H1            -14.4614337326      -29.8846923064       33.9889385779  TIP3      352             0.0000000000
     23376       544  TIP3      H2            -15.1056344943      -31.1905582643       33.5226818080  TIP3      352             0.0000000000
     23377       545  TIP3      OH2           -17.5763768044      -33.0128821285       27.4110927139  TIP3      353             0.0000000000
     23378       545  TIP3      H1            -17.0132707188      -33.0093713844       28.2202936581  TIP3      353             0.0000000000
     23379       545  TIP3      H2            -17.0022927628      -33.3956825818       26.7287156286  TIP3      353             0.0000000000
     23380       546  TIP3      OH2           -16.9656556226      -32.2723695071       22.8466708523  TIP3      354             0.0000000000
     23381       546  TIP3      H1            -16.5321487042      -32.9786046202       22.3119716200  TIP3      354             0.0000000000
     23382       546  TIP3      H2            -16.1834816218      -31.7098523741       22.9884301304  TIP3      354             0.0000000000
     23383       547  TIP3      OH2            -6.5661325610      -28.5079340379       32.8317730267  TIP3      355             0.0000000000
     23384       547  TIP3      H1             -6.0637824336      -29.2126151826       32.3388688065  TIP3      355             0.0000000000
     23385       547  TIP3      H2             -7.1459706701      -29.0501587538       33.4167719153  TIP3      355             0.0000000000
     23386       548  TIP3      OH2            -9.3548532753      -32.5971407885       27.6786296877  TIP3      356             0.0000000000
     23387       548  TIP3      H1            -10.1864557421      -33.0092857834       27.9703122102  TIP3      356             0.0000000000
     23388       548  TIP3      H2             -8.7338209857      -32.8648116231       28.3942789992  TIP3      356             0.0000000000
     23389       549  TIP3      OH2           -14.8630659257      -31.0811362522       26.6967697879  TIP3      357             0.0000000000
     23390       549  TIP3      H1            -15.6029578483      -30.9011314885       26.0832787086  TIP3      357             0.0000000000
     23391       549  TIP3      H2            -14.6050283642      -32.0274999567       26.5438809266  TIP3      357             0.0000000000
     23392       550  TIP3      OH2           -11.6183544770      -30.9577914028       24.0310191569  TIP3      358             0.0000000000
     23393       550  TIP3      H1            -10.6881685647      -31.1169324826       24.3117377591  TIP3      358             0.0000000000
     23394       550  TIP3      H2            -11.5656416834      -30.4520851537       23.2033215260  TIP3      358             0.0000000000
     23395       551  TIP3      OH2            -5.2697793611      -33.4952500563       30.9341623271  TIP3      359             0.0000000000
     23396       551  TIP3      H1             -6.0856542321      -33.2994975643       31.4221176150  TIP3      359             0.0000000000
     23397       551  TIP3      H2             -5.5860738918      -33.6436232398       30.0205022967  TIP3      359             0.0000000000
     23398       552  TIP3      OH2            -2.6160511549      -17.8976593227       37.5541805755  TIP3      360             0.0000000000
     23399       552  TIP3      H1             -1.8469954212      -17.5258718859       37.1044724168  TIP3      360             0.0000000000
     23400       552  TIP3      H2             -2.5653473298      -17.5825745850       38.4876505713  TIP3      360             0.0000000000
     23401       553  TIP3      OH2           -14.3886627660      -25.5656687181       36.9184971354  TIP3      361             0.0000000000
     23402       553  TIP3      H1            -13.8214092236      -25.4458419393       37.7170499742  TIP3      361             0.0000000000
     23403       553  TIP3      H2            -15.2742435001      -25.5862811457       37.3312884261  TIP3      361             0.0000000000
     23404       554  TIP3      OH2            -8.7672789024      -29.6091060052       29.1430396017  TIP3      362             0.0000000000
     23405       554  TIP3      H1             -7.9619699192      -30.0901865493       28.9151484334  TIP3      362             0.0000000000
     23406       554  TIP3      H2             -9.2183358541      -30.2412110137       29.7271824542  TIP3      362             0.0000000000
     23407       555  TIP3      OH2           -13.8939362374      -33.4792895543       26.3376057928  TIP3      363             0.0000000000
     23408       555  TIP3      H1            -14.2890534612      -34.3717120957       26.4587557547  TIP3      363             0.0000000000
     23409       555  TIP3      H2            -13.5942528596      -33.5874782772       25.4062954505  TIP3      363             0.0000000000
     23410       556  TIP3      OH2            -9.5180937790      -31.5072840587       31.7130774064  TIP3      364             0.0000000000
     23411       556  TIP3      H1            -10.3617119810      -31.0330386635       31.8786285354  TIP3      364             0.0000000000
     23412       556  TIP3      H2             -8.9468326727      -31.1622150161       32.4169909886  TIP3      364             0.0000000000
     23413       557  TIP3      OH2            -9.4771050925      -25.6229425862       23.9194988912  TIP3      365             0.0000000000
     23414       557  TIP3      H1            -10.2032978836      -25.9815301002       24.4482753548  TIP3      365             0.0000000000
     23415       557  TIP3      H2             -9.0353454349      -25.0866447342       24.5993962373  TIP3      365             0.0000000000
     23416       558  TIP3      OH2            -1.6998967768      -25.7310924419       32.4919842202  TIP3      366             0.0000000000
     23417       558  TIP3      H1             -1.2162126182      -25.0889625429       31.9091598120  TIP3      366             0.0000000000
     23418       558  TIP3      H2             -2.4773524521      -25.9408509027       31.9312445973  TIP3      366             0.0000000000
     23419       559  TIP3      OH2            -5.2914372343      -31.6322611361       21.4516625276  TIP3      367             0.0000000000
     23420       559  TIP3      H1             -5.3406097570      -32.5995380551       21.3919706250  TIP3      367             0.0000000000
     23421       559  TIP3      H2             -4.8229412010      -31.5385001675       22.2897106524  TIP3      367             0.0000000000
     23422       560  TIP3      OH2            -8.0601401161      -25.0788604327       34.8282074691  TIP3      368             0.0000000000
     23423       560  TIP3      H1             -8.2566686922      -25.1940912208       35.7689116744  TIP3      368             0.0000000000
     23424       560  TIP3      H2             -8.2602401556      -24.1302136441       34.7429987783  TIP3      368             0.0000000000
     23425       561  TIP3      OH2           -13.8264808278      -25.8482618911       29.7746550567  TIP3      369             0.0000000000
     23426       561  TIP3      H1            -13.1784522838      -26.0965196510       29.0960111630  TIP3      369             0.0000000000
     23427       561  TIP3      H2            -14.0548326036      -26.7027392776       30.1933220250  TIP3      369             0.0000000000
     23428       562  TIP3      OH2           -17.0147670277      -27.5534905424       35.1388807486  TIP3      370             0.0000000000
     23429       562  TIP3      H1            -17.2376349858      -28.1955832039       35.8415834336  TIP3      370             0.0000000000
     23430       562  TIP3      H2            -17.6036025681      -27.8333919767       34.4119956454  TIP3      370             0.0000000000
     23431       563  TIP3      OH2           -10.2380213565      -28.0313137632       36.5612731608  TIP3      371             0.0000000000
     23432       563  TIP3      H1            -10.7861930542      -28.5652526468       35.9732705415  TIP3      371             0.0000000000
     23433       563  TIP3      H2             -9.3683907963      -28.4754190643       36.4551092209  TIP3      371             0.0000000000
     23434       564  TIP3      OH2            -5.2253923528      -22.7346084342       35.1688287768  TIP3      372             0.0000000000
     23435       564  TIP3      H1             -6.0111762717      -22.5125271149       34.6489433634  TIP3      372             0.0000000000
     23436       564  TIP3      H2             -5.4664161929      -22.2928735981       36.0112090943  TIP3      372             0.0000000000
     23437       565  TIP3      OH2             0.0645285077      -30.1277540188       23.5857456236  TIP3      373             0.0000000000
     23438       565  TIP3      H1             -0.6479812743      -30.6446370598       23.1958001099  TIP3      373             0.0000000000
     23439       565  TIP3      H2             -0.1329172365      -29.2126925891       23.3120489426  TIP3      373             0.0000000000
     23440       566  TIP3      OH2             0.4883797658      -24.4453097323       35.8118968442  TIP3      374             0.0000000000
     23441       566  TIP3      H1             -0.3789054725      -24.3419266298       35.3730210882  TIP3      374             0.0000000000
     23442       566  TIP3      H2              1.0714950374      -24.5288965809       35.0277311782  TIP3      374             0.0000000000
     23443       567  TIP3      OH2            -1.3515491071      -21.8768734299       23.7442951953  TIP3      375             0.0000000000
     23444       567  TIP3      H1             -1.9767354868      -22.5682644522       23.4913276505  TIP3      375             0.0000000000
     23445       567  TIP3      H2             -0.8748134471      -21.7151288737       22.8979760636  TIP3      375             0.0000000000
     23446       568  TIP3      OH2            -3.9016521220      -26.7611625001       30.8068196443  TIP3      376             0.0000000000
     23447       568  TIP3      H1             -4.7844252003      -27.1738650429       30.8341062471  TIP3      376             0.0000000000
     23448       568  TIP3      H2             -3.4237622036      -27.3891226829       30.2120402341  TIP3      376             0.0000000000
     23449       569  TIP3      OH2           -11.8209494276      -22.3137396780       26.9889450625  TIP3      377             0.0000000000
     23450       569  TIP3      H1            -11.6171873122      -21.4152885408       26.6580213062  TIP3      377             0.0000000000
     23451       569  TIP3      H2            -12.7411709150      -22.4134498258       26.7034564594  TIP3      377             0.0000000000
     23452       570  TIP3      OH2           -10.3006458026      -24.5377517766       26.4493608298  TIP3      378             0.0000000000
     23453       570  TIP3      H1            -10.8539932728      -23.7390558089       26.6015341118  TIP3      378             0.0000000000
     23454       570  TIP3      H2            -10.8920061949      -25.2523639158       26.7390647637  TIP3      378             0.0000000000
     23455       571  TIP3      OH2            -9.8290456178      -20.6109637900       33.2749932109  TIP3      379             0.0000000000
     23456       571  TIP3      H1             -9.2357339189      -19.9586418121       32.8469957618  TIP3      379             0.0000000000
     23457       571  TIP3      H2             -9.2283439598      -20.9439034731       33.9679268173  TIP3      379             0.0000000000
     23458       572  TIP3      OH2           -11.7390773698      -19.6423220737       25.8362628953  TIP3      380             0.0000000000
     23459       572  TIP3      H1            -12.6687988220      -19.7251025752       26.1186453332  TIP3      380             0.0000000000
     23460       572  TIP3      H2            -11.5477660540      -18.7567218676       26.2041336681  TIP3      380             0.0000000000
     23461       573  TIP3      OH2            -6.7104089996      -24.5902618968       32.4684091580  TIP3      381             0.0000000000
     23462       573  TIP3      H1             -7.0393064054      -24.9269389742       33.3406860495  TIP3      381             0.0000000000
     23463       573  TIP3      H2             -6.3335232258      -25.4056526237       32.0910071164  TIP3      381             0.0000000000
     23464       574  TIP3      OH2            -4.0916743634      -23.5411681677       22.2864761425  TIP3      382             0.0000000000
     23465       574  TIP3      H1             -4.2991115313      -24.4620332261       22.4915653165  TIP3      382             0.0000000000
     23466       574  TIP3      H2             -4.5200000617      -23.4675029194       21.4282680906  TIP3      382             0.0000000000
     23467       575  TIP3      OH2            -3.5383154590      -20.0067987187       35.0395539034  TIP3      383             0.0000000000
     23468       575  TIP3      H1             -4.3221211263      -20.5366013586       34.8019527159  TIP3      383             0.0000000000
     23469       575  TIP3      H2             -3.4220283615      -19.4476132766       34.2316253460  TIP3      383             0.0000000000
     23470       576  TIP3      OH2             0.4334981170      -19.1515187806       21.9620558525  TIP3      384             0.0000000000
     23471       576  TIP3      H1              1.0900267087      -18.5547258319       21.5457744061  TIP3      384             0.0000000000
     23472       576  TIP3      H2             -0.0817174928      -18.4739805829       22.4489282956  TIP3      384             0.0000000000
     23473       577  TIP3      OH2           -15.6160305167      -33.1036315352       33.9506881092  TIP3      385             0.0000000000
     23474       577  TIP3      H1            -16.4794053189      -32.6585442682       33.9953776801  TIP3      385             0.0000000000
     23475       577  TIP3      H2            -15.7374421005      -33.8176861570       34.6158594937  TIP3      385             0.0000000000
     23476       578  TIP3      OH2           -15.8506458823      -21.3971813136       32.7924063660  TIP3      386             0.0000000000
     23477       578  TIP3      H1            -15.0206797618      -21.8609134192       32.9754406849  TIP3      386             0.0000000000
     23478       578  TIP3      H2            -15.7253365107      -20.5469567418       33.2294583304  TIP3      386             0.0000000000
     23479       579  TIP3      OH2            -6.6303017970      -32.9750923657       33.4086498468  TIP3      387             0.0000000000
     23480       579  TIP3      H1             -5.8686144259      -32.6361555389       33.9205277940  TIP3      387             0.0000000000
     23481       579  TIP3      H2             -6.6207813715      -33.9248283900       33.6296934719  TIP3      387             0.0000000000
     23482       580  TIP3      OH2            -5.9114540275      -33.4210670482       24.7155739385  TIP3      388             0.0000000000
     23483       580  TIP3      H1             -5.2550323872      -33.7278188739       24.0645948426  TIP3      388             0.0000000000
     23484       580  TIP3      H2             -5.3967873314      -33.2212620905       25.5191784017  TIP3      388             0.0000000000
     23485       581  TIP3      OH2            -9.1947324503      -31.4935868777       25.1541560138  TIP3      389             0.0000000000
     23486       581  TIP3      H1             -8.2751047666      -31.1449475485       25.1733902937  TIP3      389             0.0000000000
     23487       581  TIP3      H2             -9.2786044300      -31.9268952996       26.0404673100  TIP3      389             0.0000000000
     23488       582  TIP3      OH2            -7.7807900566      -30.3524175810       34.3140603406  TIP3      390             0.0000000000
     23489       582  TIP3      H1             -7.6330724733      -30.1096208340       35.2554280725  TIP3      390             0.0000000000
     23490       582  TIP3      H2             -7.4522679618      -31.2720058205       34.2526385195  TIP3      390             0.0000000000
     23491       583  TIP3      OH2            -7.9825896573      -34.4385700477       26.0501782584  TIP3      391             0.0000000000
     23492       583  TIP3      H1             -8.0698630030      -33.7468462201       26.7315602165  TIP3      391             0.0000000000
     23493       583  TIP3      H2             -7.2573358574      -34.0560751521       25.5106175574  TIP3      391             0.0000000000
     23494       584  TIP3      OH2           -11.0214145159      -19.6807066995       23.1932928295  TIP3      392             0.0000000000
     23495       584  TIP3      H1            -10.0660853224      -19.7065403256       23.3018815625  TIP3      392             0.0000000000
     23496       584  TIP3      H2            -11.3513973453      -19.5754447421       24.0999703464  TIP3      392             0.0000000000
     23497       585  TIP3      OH2           -12.7970939769      -33.4930614921       23.9658588096  TIP3      393             0.0000000000
     23498       585  TIP3      H1            -12.4299367335      -32.5921154139       23.9351764955  TIP3      393             0.0000000000
     23499       585  TIP3      H2            -12.1223402906      -34.0569770696       23.5573280689  TIP3      393             0.0000000000
     23500       586  TIP3      OH2            -2.4478644932      -32.5596275823       35.3334023679  TIP3      394             0.0000000000
     23501       586  TIP3      H1             -3.3222625565      -32.2072218210       35.0591862400  TIP3      394             0.0000000000
     23502       586  TIP3      H2             -2.1346818596      -32.9512065986       34.4941644854  TIP3      394             0.0000000000
     23503       587  TIP3      OH2            -3.1153254570      -28.8612103498       29.3477142403  TIP3      395             0.0000000000
     23504       587  TIP3      H1             -3.9477300164      -29.3699606071       29.2124177793  TIP3      395             0.0000000000
     23505       587  TIP3      H2             -2.5109048010      -29.4791335252       29.7955840027  TIP3      395             0.0000000000
     23506       588  TIP3      OH2            -2.4852257437      -19.8092925742       30.7089364048  TIP3      396             0.0000000000
     23507       588  TIP3      H1             -2.3926546335      -19.1198262213       30.0138086588  TIP3      396             0.0000000000
     23508       588  TIP3      H2             -1.5539933836      -19.8711681672       30.9951457194  TIP3      396             0.0000000000
     23509       589  TIP3      OH2           -14.8068671464      -35.6039661679       30.2850918276  TIP3      397             0.0000000000
     23510       589  TIP3      H1            -14.6061998976      -35.8963298722       29.3834810957  TIP3      397             0.0000000000
     23511       589  TIP3      H2            -14.3867841346      -36.3161603930       30.7932362258  TIP3      397             0.0000000000
     23512       590  TIP3      OH2           -16.1709686275      -21.9268690223       25.7680836954  TIP3      398             0.0000000000
     23513       590  TIP3      H1            -16.9621843254      -21.4036734292       25.9211249247  TIP3      398             0.0000000000
     23514       590  TIP3      H2            -15.8283136469      -21.3987653459       25.0127730376  TIP3      398             0.0000000000
     23515       591  TIP3      OH2           -16.9200411804      -18.8839505412       37.2414957421  TIP3      399             0.0000000000
     23516       591  TIP3      H1            -16.2239570411      -18.9775545980       37.9366845362  TIP3      399             0.0000000000
     23517       591  TIP3      H2            -17.2362682677      -19.8009200186       37.2175480835  TIP3      399             0.0000000000
     23518       592  TIP3      OH2           -11.7730550386      -20.3538017844       38.7734030532  TIP3      400             0.0000000000
     23519       592  TIP3      H1            -10.8749746983      -20.7258685138       38.8104318526  TIP3      400             0.0000000000
     23520       592  TIP3      H2            -12.0912466610      -20.8053654247       37.9741772633  TIP3      400             0.0000000000
     23521       593  TIP3      OH2            -5.8064215484      -21.5483739741       37.5899769595  TIP3      401             0.0000000000
     23522       593  TIP3      H1             -5.9780620339      -22.4166555390       38.0295026383  TIP3      401             0.0000000000
     23523       593  TIP3      H2             -4.8996432296      -21.3746986821       37.9486596178  TIP3      401             0.0000000000
     23524       594  TIP3      OH2           -16.9187248446      -25.3828741555       38.1966225728  TIP3      402             0.0000000000
     23525       594  TIP3      H1            -17.4178730436      -26.1993607471       38.3667092791  TIP3      402             0.0000000000
     23526       594  TIP3      H2            -17.3790736740      -25.0341262239       37.3943583676  TIP3      402             0.0000000000
     23527       595  TIP3      OH2           -12.0091302522      -24.7436339572       20.2520740065  TIP3      403             0.0000000000
     23528       595  TIP3      H1            -12.6785620280      -24.7306408734       20.9657843450  TIP3      403             0.0000000000
     23529       595  TIP3      H2            -12.5146289480      -24.2490361109       19.5818521195  TIP3      403             0.0000000000
     23530       596  TIP3      OH2           -10.2437025945      -25.3942447845       37.1012180223  TIP3      404             0.0000000000
     23531       596  TIP3      H1            -10.4861379001      -24.7675402903       36.3820624987  TIP3      404             0.0000000000
     23532       596  TIP3      H2            -10.2462508321      -26.2728613302       36.6445078307  TIP3      404             0.0000000000
     23533       597  TIP3      OH2            -4.5179065905      -25.3184552456       35.1256774032  TIP3      405             0.0000000000
     23534       597  TIP3      H1             -3.6907682425      -24.7909860526       35.0656673661  TIP3      405             0.0000000000
     23535       597  TIP3      H2             -5.1325079455      -24.5561415197       35.1510543071  TIP3      405             0.0000000000
     23536       598  TIP3      OH2           -15.4648987953      -28.3545646732       37.6074466438  TIP3      406             0.0000000000
     23537       598  TIP3      H1            -14.6613315247      -28.8550268116       37.7555910968  TIP3      406             0.0000000000
     23538       598  TIP3      H2            -15.3292474660      -27.6223462066       38.2377827481  TIP3      406             0.0000000000
     23539       599  TIP3      OH2           -12.3051949294      -29.1220169599       34.4958303201  TIP3      407             0.0000000000
     23540       599  TIP3      H1            -12.8344268316      -28.2994222044       34.4752679054  TIP3      407             0.0000000000
     23541       599  TIP3      H2            -11.5911380555      -28.8452772307       33.8898192834  TIP3      407             0.0000000000
     23542       600  TIP3      OH2            -6.5440694284      -26.2210037768       38.2023739811  TIP3      408             0.0000000000
     23543       600  TIP3      H1             -6.1078920524      -26.8007182358       37.5621014225  TIP3      408             0.0000000000
     23544       600  TIP3      H2             -6.9232943611      -26.8335686852       38.8535323918  TIP3      408             0.0000000000
     23545       601  TIP3      OH2           -10.9557659620      -31.2239485853       35.5821665048  TIP3      409             0.0000000000
     23546       601  TIP3      H1            -10.9973807330      -31.9644276672       34.9349008523  TIP3      409             0.0000000000
     23547       601  TIP3      H2            -11.1393637933      -30.4476455883       35.0081349402  TIP3      409             0.0000000000
     23548       602  TIP3      OH2           -10.7091898469      -33.1754697476       33.5549683452  TIP3      410             0.0000000000
     23549       602  TIP3      H1            -10.2975409278      -32.9470971385       32.6956767411  TIP3      410             0.0000000000
     23550       602  TIP3      H2            -11.6614416425      -33.0454030607       33.3268162934  TIP3      410             0.0000000000
     23551       603  TIP3      OH2            -9.8944453070      -27.7753110550       33.4699416340  TIP3      411             0.0000000000
     23552       603  TIP3      H1             -8.9755729820      -27.5405372982       33.2908460126  TIP3      411             0.0000000000
     23553       603  TIP3      H2            -10.3632396219      -26.9909391503       33.1288934352  TIP3      411             0.0000000000
     23554       604  TIP3      OH2            -5.6693291870      -29.8810884827       38.7652696961  TIP3      412             0.0000000000
     23555       604  TIP3      H1             -5.4768544167      -30.8229827515       38.9292543176  TIP3      412             0.0000000000
     23556       604  TIP3      H2             -4.7824720539      -29.4943104344       38.8023624745  TIP3      412             0.0000000000
     23557       605  TIP3      OH2            -3.7153282424      -26.9424975576       37.1065701859  TIP3      413             0.0000000000
     23558       605  TIP3      H1             -4.1111045086      -26.3597184058       36.4192055671  TIP3      413             0.0000000000
     23559       605  TIP3      H2             -2.7900608712      -27.0046547057       36.7854863215  TIP3      413             0.0000000000
     23560       606  TIP3      OH2           -12.8038894249      -30.7634631801       37.8725388405  TIP3      414             0.0000000000
     23561       606  TIP3      H1            -13.5471470355      -31.2196784933       37.4062599293  TIP3      414             0.0000000000
     23562       606  TIP3      H2            -12.1423342480      -30.7228295218       37.1610391443  TIP3      414             0.0000000000
     23563       607  TIP3      OH2           -10.2261167637      -35.8103633626       33.8160216819  TIP3      415             0.0000000000
     23564       607  TIP3      H1            -10.3381194015      -34.8284954954       33.8221920734  TIP3      415             0.0000000000
     23565       607  TIP3      H2            -11.0985772421      -36.0736315053       33.4528860758  TIP3      415             0.0000000000
     23566       608  TIP3      OH2            -9.1416805109      -31.3549199468       37.6815678391  TIP3      416             0.0000000000
     23567       608  TIP3      H1             -9.7048680854      -31.5325924483       38.4473167481  TIP3      416             0.0000000000
     23568       608  TIP3      H2             -9.7753523104      -31.5560643400       36.9539726952  TIP3      416             0.0000000000
     23569       609  TIP3      OH2            -6.4020420308      -32.3053035934       36.8286311967  TIP3      417             0.0000000000
     23570       609  TIP3      H1             -7.3341587565      -32.2602249392       37.1101355163  TIP3      417             0.0000000000
     23571       609  TIP3      H2             -6.0205875786      -32.8877262119       37.5107120341  TIP3      417             0.0000000000
     23572       610  TIP3      OH2            -4.0694448567      -33.0324954544       38.6601595091  TIP3      418             0.0000000000
     23573       610  TIP3      H1             -4.2330055986      -33.9671732658       38.4059863477  TIP3      418             0.0000000000
     23574       610  TIP3      H2             -4.4674410545      -32.9903426289       39.5649959613  TIP3      418             0.0000000000
     23575       611  TIP3      OH2           -14.9642009508      -32.6459670459       37.5307923782  TIP3      419             0.0000000000
     23576       611  TIP3      H1            -15.1943821242      -33.5082608825       37.1310373283  TIP3      419             0.0000000000
     23577       611  TIP3      H2            -14.9716544322      -32.8866549652       38.4921073728  TIP3      419             0.0000000000
     23578       612  TIP3      OH2           -10.2791490994       37.0644745113       36.6299027021  TIP3      420             0.0000000000
     23579       612  TIP3      H1            -10.3041872814       36.1030813008       36.6425876433  TIP3      420             0.0000000000
     23580       612  TIP3      H2            -10.2746230455       37.2719477510       35.6728414480  TIP3      420             0.0000000000
     23581       613  TIP3      OH2           -10.6842701207      -35.3312242532       39.1312624400  TIP3      421             0.0000000000
     23582       613  TIP3      H1            -10.3923899675      -35.4353108626       38.2004163866  TIP3      421             0.0000000000
     23583       613  TIP3      H2            -10.9765961407      -34.3951495735       39.1654695776  TIP3      421             0.0000000000
     23584       614  TIP3      OH2           -17.9339464060      -18.3070479810       26.4239561813  TIP3      422             0.0000000000
     23585       614  TIP3      H1            -18.5015260152      -18.8795154982       25.8539228486  TIP3      422             0.0000000000
     23586       614  TIP3      H2            -17.7749204999      -18.8701138318       27.2075258545  TIP3      422             0.0000000000
     23587       615  TIP3      OH2           -17.2163677102      -20.0808451086       28.4033827848  TIP3      423             0.0000000000
     23588       615  TIP3      H1            -17.5170581415      -20.9367592748       28.7613303694  TIP3      423             0.0000000000
     23589       615  TIP3      H2            -16.6811894112      -19.7379584628       29.1459382341  TIP3      423             0.0000000000
     23590       616  TIP3      OH2             0.2754381229      -19.1000595862       30.9347083069  TIP3      424             0.0000000000
     23591       616  TIP3      H1              0.6426292553      -18.9591066732       31.8326709881  TIP3      424             0.0000000000
     23592       616  TIP3      H2              1.0159927256      -18.8510179807       30.3646649268  TIP3      424             0.0000000000
     23593       617  TIP3      OH2            -0.1748335479      -19.7261359418       33.9554129449  TIP3      425             0.0000000000
     23594       617  TIP3      H1             -0.4964517669      -20.5185870653       33.4739885593  TIP3      425             0.0000000000
     23595       617  TIP3      H2              0.0768333384      -20.1400286999       34.8043831359  TIP3      425             0.0000000000
     23596       618  TIP3      OH2            -1.2462534476      -23.9438655230       38.9435918459  TIP3      426             0.0000000000
     23597       618  TIP3      H1             -2.1217175682      -23.7837369860       39.3635428270  TIP3      426             0.0000000000
     23598       618  TIP3      H2             -0.8095906969      -23.0825481343       39.1385536571  TIP3      426             0.0000000000
     23599       619  TIP3      OH2            -0.1971355929      -25.7116578660       23.7527157676  TIP3      427             0.0000000000
     23600       619  TIP3      H1              0.6279350311      -25.2512693447       24.0252850872  TIP3      427             0.0000000000
     23601       619  TIP3      H2             -0.4530343342      -26.0995844173       24.6081080164  TIP3      427             0.0000000000
     23602       620  TIP3      OH2            -0.0307979666      -27.1938814426       26.1972155588  TIP3      428             0.0000000000
     23603       620  TIP3      H1             -0.8073994398      -27.7321893815       26.4860918221  TIP3      428             0.0000000000
     23604       620  TIP3      H2              0.5499102785      -27.2513304825       26.9862642778  TIP3      428             0.0000000000
     23605       621  TIP3      OH2            -0.1922638733      -24.7250330527       30.6295637403  TIP3      429             0.0000000000
     23606       621  TIP3      H1              0.5040808009      -25.4088413547       30.5963343516  TIP3      429             0.0000000000
     23607       621  TIP3      H2              0.2395456085      -23.9541157813       30.2144173612  TIP3      429             0.0000000000
     23608       622  TIP3      OH2            -1.4826921834      -21.8863959713       33.1561189008  TIP3      430             0.0000000000
     23609       622  TIP3      H1             -2.2796703796      -21.5746561688       33.6106350215  TIP3      430             0.0000000000
     23610       622  TIP3      H2             -1.8459891371      -22.1515038140       32.2824598707  TIP3      430             0.0000000000
     23611       623  TIP3      OH2            -0.0898192938      -27.6351221982       21.8655922657  TIP3      431             0.0000000000
     23612       623  TIP3      H1             -0.4354035863      -27.0239564953       21.1837038304  TIP3      431             0.0000000000
     23613       623  TIP3      H2             -0.0114075399      -26.9869350075       22.6064323764  TIP3      431             0.0000000000
     23614       624  TIP3      OH2            -1.8921223064      -30.5369324800       21.0519530520  TIP3      432             0.0000000000
     23615       624  TIP3      H1             -0.9367568722      -30.4560483789       21.1831270710  TIP3      432             0.0000000000
     23616       624  TIP3      H2             -1.9976004719      -31.4417006824       20.7254624549  TIP3      432             0.0000000000
     23617       625  TIP3      OH2            -1.9891009002      -28.8066491602       26.9697358802  TIP3      433             0.0000000000
     23618       625  TIP3      H1             -2.8347081817      -29.0084194903       26.5567789161  TIP3      433             0.0000000000
     23619       625  TIP3      H2             -2.2638497620      -28.7048817059       27.9062357192  TIP3      433             0.0000000000
     23620       626  TIP3      OH2           -17.3038450561      -26.6870237526       30.7925145223  TIP3      434             0.0000000000
     23621       626  TIP3      H1            -17.1571274479      -26.9154751099       29.8455334566  TIP3      434             0.0000000000
     23622       626  TIP3      H2            -16.4011681795      -26.8737324369       31.1356261379  TIP3      434             0.0000000000
     23623       627  TIP3      OH2            -0.9071003218      -26.9621482104       36.2929402443  TIP3      435             0.0000000000
     23624       627  TIP3      H1             -0.4284048294      -27.8254911159       36.2330136507  TIP3      435             0.0000000000
     23625       627  TIP3      H2             -0.2141362301      -26.3425240040       36.0011746733  TIP3      435             0.0000000000
     23626       628  TIP3      OH2             0.1962097198      -29.3616847474       36.7205452068  TIP3      436             0.0000000000
     23627       628  TIP3      H1             -0.7475083179      -29.6350198820       36.6539789016  TIP3      436             0.0000000000
     23628       628  TIP3      H2              0.6279312096      -30.2425243223       36.6343524239  TIP3      436             0.0000000000
     23629       629  TIP3      OH2            -2.5682039372      -31.2257968931       24.6429487246  TIP3      437             0.0000000000
     23630       629  TIP3      H1             -2.4337314934      -32.1311270821       24.9642564345  TIP3      437             0.0000000000
     23631       629  TIP3      H2             -1.6888215354      -30.8568566233       24.7702593143  TIP3      437             0.0000000000
     23632       630  TIP3      OH2            -1.4809381985      -30.8178979902       30.6192561537  TIP3      438             0.0000000000
     23633       630  TIP3      H1             -0.5206760240      -30.5710343511       30.6468702468  TIP3      438             0.0000000000
     23634       630  TIP3      H2             -1.6573026780      -30.8470920799       31.5847092024  TIP3      438             0.0000000000
     23635       631  TIP3      OH2            -1.6702413241      -29.9738130048       33.1530644258  TIP3      439             0.0000000000
     23636       631  TIP3      H1             -2.5907105134      -29.6616424090       33.2522802544  TIP3      439             0.0000000000
     23637       631  TIP3      H2             -1.1850002645      -29.1381441298       32.9648893081  TIP3      439             0.0000000000
     23638       632  TIP3      OH2           -17.3371353389      -31.7305530238       36.7920614438  TIP3      440             0.0000000000
     23639       632  TIP3      H1            -16.3979889242      -31.8809534021       37.0339817856  TIP3      440             0.0000000000
     23640       632  TIP3      H2            -17.6755892120      -32.6517042954       36.8024207308  TIP3      440             0.0000000000
     23641       633  TIP3      OH2             1.2004929981      -36.0146056255       38.6577559762  TIP3      441             0.0000000000
     23642       633  TIP3      H1              1.0692217313      -36.7650451006       38.0436700742  TIP3      441             0.0000000000
     23643       633  TIP3      H2              0.8603547632      -35.2907422923       38.0799243768  TIP3      441             0.0000000000
     23644       634  TIP3      OH2            -2.4786632121      -33.9347904997       25.6428999431  TIP3      442             0.0000000000
     23645       634  TIP3      H1             -1.7540583588      -34.1786414783       26.2674673644  TIP3      442             0.0000000000
     23646       634  TIP3      H2             -2.3882673395      -34.6323441025       24.9797390061  TIP3      442             0.0000000000
     23647       635  TIP3      OH2           -16.3328799279      -33.2468267736       29.7657283137  TIP3      443             0.0000000000
     23648       635  TIP3      H1            -15.9265213140      -34.0377422159       30.1703081790  TIP3      443             0.0000000000
     23649       635  TIP3      H2            -15.6291876180      -32.5887555303       29.8669191642  TIP3      443             0.0000000000
     23650       636  TIP3      OH2           -17.8558372016      -30.1395728518       31.0304443117  TIP3      444             0.0000000000
     23651       636  TIP3      H1            -17.2991709656      -30.4234598014       30.2824992270  TIP3      444             0.0000000000
     23652       636  TIP3      H2            -17.6278869613      -29.2030853781       31.0673803035  TIP3      444             0.0000000000
     23653       637  TIP3      OH2             0.3439874056      -34.1937787762       36.9303282691  TIP3      445             0.0000000000
     23654       637  TIP3      H1             -0.2078741694      -33.6407880797       37.5334875177  TIP3      445             0.0000000000
     23655       637  TIP3      H2             -0.3217866751      -34.3987850597       36.2423609293  TIP3      445             0.0000000000
     23656       638  TIP3      OH2           -17.2174780565      -34.2399240178       24.7997641572  TIP3      446             0.0000000000
     23657       638  TIP3      H1            -18.1041175387      -34.6113749826       24.7772466421  TIP3      446             0.0000000000
     23658       638  TIP3      H2            -17.3503252182      -33.4626773000       24.2252881344  TIP3      446             0.0000000000
     23659       639  TIP3      OH2            -2.9119457623      -19.1504706621       26.8401100956  TIP3      447             0.0000000000
     23660       639  TIP3      H1             -2.2046019754      -19.2235525906       26.1677427611  TIP3      447             0.0000000000
     23661       639  TIP3      H2             -2.5405337984      -18.5478082539       27.5189953014  TIP3      447             0.0000000000
     23662       640  TIP3      OH2           -17.3590438619      -35.5459335943       32.8559009868  TIP3      448             0.0000000000
     23663       640  TIP3      H1            -17.6250052868      -35.0942450119       33.6685038750  TIP3      448             0.0000000000
     23664       640  TIP3      H2            -17.9386245095      -35.0918475844       32.2056307805  TIP3      448             0.0000000000
     23665       641  TIP3      OH2           -15.4080812508      -22.2599997251       37.1531956039  TIP3      449             0.0000000000
     23666       641  TIP3      H1            -16.2093806229      -22.0056968751       36.6675566220  TIP3      449             0.0000000000
     23667       641  TIP3      H2            -15.7689288390      -22.7108652235       37.9175603418  TIP3      449             0.0000000000
     23668       642  TIP3      OH2           -12.6263377652      -20.8200452116       33.7026539047  TIP3      450             0.0000000000
     23669       642  TIP3      H1            -12.6038112875      -19.8682818519       33.4603964682  TIP3      450             0.0000000000
     23670       642  TIP3      H2            -11.6751079346      -21.0454456286       33.6406403948  TIP3      450             0.0000000000
     23671       643  TIP3      OH2            -8.4506481945      -19.6884239855       36.1631580251  TIP3      451             0.0000000000
     23672       643  TIP3      H1             -8.3330913377      -19.8503727048       37.1201961760  TIP3      451             0.0000000000
     23673       643  TIP3      H2             -7.5533051937      -19.3787844536       35.9075827529  TIP3      451             0.0000000000
     23674       644  TIP3      OH2            -6.1530101747      -18.3263495769       35.5957515778  TIP3      452             0.0000000000
     23675       644  TIP3      H1             -5.2891727795      -18.7482091383       35.5052338297  TIP3      452             0.0000000000
     23676       644  TIP3      H2             -6.0150179215      -17.8932982986       36.4706267485  TIP3      452             0.0000000000
     23677       645  TIP3      OH2            -0.7701180573      -35.6206999810       34.6376138604  TIP3      453             0.0000000000
     23678       645  TIP3      H1             -1.5072725022      -35.2980352742       34.0980874003  TIP3      453             0.0000000000
     23679       645  TIP3      H2             -0.6744588036      -36.5530023715       34.3632115698  TIP3      453             0.0000000000
     23680       646  TIP3      OH2           -15.0659626995      -17.6950428668       33.4613818688  TIP3      454             0.0000000000
     23681       646  TIP3      H1            -15.8430444718      -17.1897554244       33.1251249720  TIP3      454             0.0000000000
     23682       646  TIP3      H2            -15.1817604546      -17.4961703659       34.4049982503  TIP3      454             0.0000000000
     23683       647  TIP3      OH2           -12.6525399522      -18.2271496822       32.5330874418  TIP3      455             0.0000000000
     23684       647  TIP3      H1            -13.5995804947      -18.0686881081       32.7700524482  TIP3      455             0.0000000000
     23685       647  TIP3      H2            -12.5431319654      -17.6320855650       31.7777660952  TIP3      455             0.0000000000
     23686       648  TIP3      OH2            -8.2114972413      -18.7013372229       31.9800874861  TIP3      456             0.0000000000
     23687       648  TIP3      H1             -8.5921034379      -18.4176222296       31.1415421169  TIP3      456             0.0000000000
     23688       648  TIP3      H2             -7.8415316859      -17.8618189928       32.3323132419  TIP3      456             0.0000000000
     23689       649  TIP3      OH2            -6.0270419504      -19.9641102408       33.0714893917  TIP3      457             0.0000000000
     23690       649  TIP3      H1             -6.7084593285      -19.4379720405       32.6093402583  TIP3      457             0.0000000000
     23691       649  TIP3      H2             -5.2412778953      -19.4131002238       32.8870255110  TIP3      457             0.0000000000
     23692       650  TIP3      OH2            -3.3328270158      -18.3124003653       32.8571031970  TIP3      458             0.0000000000
     23693       650  TIP3      H1             -3.2631332805      -17.3478426562       32.7143487508  TIP3      458             0.0000000000
     23694       650  TIP3      H2             -3.1159359988      -18.6355663541       31.9535533279  TIP3      458             0.0000000000
     23695       651  TIP3      OH2           -15.3782240736      -19.1424307091       30.5940462830  TIP3      459             0.0000000000
     23696       651  TIP3      H1            -15.8195364302      -19.8030732781       31.1473154152  TIP3      459             0.0000000000
     23697       651  TIP3      H2            -14.5565419610      -19.6001180633       30.3010420360  TIP3      459             0.0000000000
     23698       652  TIP3      OH2           -13.3340753223      -20.2968872908       29.3100554213  TIP3      460             0.0000000000
     23699       652  TIP3      H1            -13.4386047663      -21.2518430395       29.4946808436  TIP3      460             0.0000000000
     23700       652  TIP3      H2            -12.4682372412      -20.1206301260       29.7382829454  TIP3      460             0.0000000000
     23701       653  TIP3      OH2           -10.9434068634      -20.2077477351       30.5520126049  TIP3      461             0.0000000000
     23702       653  TIP3      H1            -10.6812869510      -21.1411403106       30.4409225092  TIP3      461             0.0000000000
     23703       653  TIP3      H2            -10.9036657389      -20.1162109312       31.5207871935  TIP3      461             0.0000000000
     23704       654  TIP3      OH2            -7.3647818484      -33.5835511260       29.1786984820  TIP3      462             0.0000000000
     23705       654  TIP3      H1             -7.8290236262      -34.4012154580       29.4378040553  TIP3      462             0.0000000000
     23706       654  TIP3      H2             -6.6734522149      -33.9552857641       28.5927827918  TIP3      462             0.0000000000
     23707       655  TIP3      OH2            -2.6328461388      -36.4920206436       28.6509700288  TIP3      463             0.0000000000
     23708       655  TIP3      H1             -2.0865994848      -35.8349336942       28.1826951437  TIP3      463             0.0000000000
     23709       655  TIP3      H2             -3.3124100706      -35.9550446227       29.0697143548  TIP3      463             0.0000000000
     23710       656  TIP3      OH2            -0.6740088021      -34.9492287559       27.3680864916  TIP3      464             0.0000000000
     23711       656  TIP3      H1             -0.1224315946      -35.6615299772       27.7376238209  TIP3      464             0.0000000000
     23712       656  TIP3      H2             -0.0852671320      -34.1706148562       27.5066066288  TIP3      464             0.0000000000
     23713       657  TIP3      OH2           -15.0242893451      -35.6942968320       26.9561659720  TIP3      465             0.0000000000
     23714       657  TIP3      H1            -15.8963402699      -36.0893178218       26.8080519757  TIP3      465             0.0000000000
     23715       657  TIP3      H2            -14.5301483335      -36.4521554861       27.3244278728  TIP3      465             0.0000000000
     23716       658  TIP3      OH2           -16.7125272436      -35.0639455013       22.2649607891  TIP3      466             0.0000000000
     23717       658  TIP3      H1            -15.9676427206      -35.1891376319       21.6450945095  TIP3      466             0.0000000000
     23718       658  TIP3      H2            -16.2505181118      -35.2760390386       23.0895804219  TIP3      466             0.0000000000
     23719       659  TIP3      OH2           -10.1247882305      -35.7686912861       27.0855179963  TIP3      467             0.0000000000
     23720       659  TIP3      H1             -9.3565099827      -35.3671395348       26.6284367058  TIP3      467             0.0000000000
     23721       659  TIP3      H2             -9.7588732093      -35.8463177025       27.9916870340  TIP3      467             0.0000000000
     23722       660  TIP3      OH2            -5.5541239095      -35.2520567235       27.9823424224  TIP3      468             0.0000000000
     23723       660  TIP3      H1             -5.5528387671      -35.1763619932       27.0091389897  TIP3      468             0.0000000000
     23724       660  TIP3      H2             -5.5339839808      -36.2180308862       28.0743058380  TIP3      468             0.0000000000
     23725       661  TIP3      OH2           -16.3935827100      -20.0913122806       23.8479298696  TIP3      469             0.0000000000
     23726       661  TIP3      H1            -17.0076097782      -20.3683639646       23.1404963402  TIP3      469             0.0000000000
     23727       661  TIP3      H2            -16.0472100842      -19.3162921644       23.3757906829  TIP3      469             0.0000000000
     23728       662  TIP3      OH2           -15.0307814455      -33.0475249283       21.0112696852  TIP3      470             0.0000000000
     23729       662  TIP3      H1            -14.5118538061      -32.9326665081       20.2027315869  TIP3      470             0.0000000000
     23730       662  TIP3      H2            -14.4654047663      -33.6989497457       21.4935807970  TIP3      470             0.0000000000
     23731       663  TIP3      OH2            -9.6131679304      -34.3178358307       23.7140760019  TIP3      471             0.0000000000
     23732       663  TIP3      H1             -9.3149775901      -34.5261591314       24.6127109642  TIP3      471             0.0000000000
     23733       663  TIP3      H2             -9.4292839834      -33.3686644939       23.6795678415  TIP3      471             0.0000000000
     23734       664  TIP3      OH2            -1.0442195509      -19.5225117993       24.9133966825  TIP3      472             0.0000000000
     23735       664  TIP3      H1             -1.0712919121      -20.4556384024       24.5851654296  TIP3      472             0.0000000000
     23736       664  TIP3      H2             -1.3297414496      -19.0495219203       24.1169958105  TIP3      472             0.0000000000
     23737       665  TIP3      OH2           -15.6705865458      -35.0099479234       36.1857597221  TIP3      473             0.0000000000
     23738       665  TIP3      H1            -16.2722023877      -35.7579599902       36.3380903707  TIP3      473             0.0000000000
     23739       665  TIP3      H2            -14.8280561230      -35.3428885227       36.5510678049  TIP3      473             0.0000000000
     23740       666  TIP3      OH2           -13.3639421584      -35.6648831385       38.1154082971  TIP3      474             0.0000000000
     23741       666  TIP3      H1            -12.4521131902      -35.4237306364       37.8816541243  TIP3      474             0.0000000000
     23742       666  TIP3      H2            -13.2044002794      -36.4798493711       38.6291031042  TIP3      474             0.0000000000
     23743       667  TIP3      OH2            -4.7321945694      -35.7211496579       38.0632596860  TIP3      475             0.0000000000
     23744       667  TIP3      H1             -5.0891319673      -36.5203673513       38.4838419037  TIP3      475             0.0000000000
     23745       667  TIP3      H2             -4.0402361582      -36.0892461179       37.5013113714  TIP3      475             0.0000000000
     23746       668  TIP3      OH2            -1.6648880610      -20.3125344020       36.8793930805  TIP3      476             0.0000000000
     23747       668  TIP3      H1             -2.4244504680      -20.4562780541       36.2710974464  TIP3      476             0.0000000000
     23748       668  TIP3      H2             -1.9596114877      -19.4416069221       37.2315915638  TIP3      476             0.0000000000
     23749       669  TIP3      OH2            12.9218328771      -26.7604387672       26.5783609040  TIP3      477             0.0000000000
     23750       669  TIP3      H1             12.7699938849      -25.8311544743       26.8203046647  TIP3      477             0.0000000000
     23751       669  TIP3      H2             12.3875022829      -26.8501109573       25.7568965091  TIP3      477             0.0000000000
     23752       670  TIP3      OH2            11.9543211742      -27.8587178314       30.1925863743  TIP3      478             0.0000000000
     23753       670  TIP3      H1             12.0345381269      -28.1771605378       31.1202101721  TIP3      478             0.0000000000
     23754       670  TIP3      H2             11.2006236405      -28.3872465668       29.8509478044  TIP3      478             0.0000000000
     23755       671  TIP3      OH2             4.0065180524      -27.6768453427       31.4984534576  TIP3      479             0.0000000000
     23756       671  TIP3      H1              3.8571642365      -28.4302770589       32.0875030889  TIP3      479             0.0000000000
     23757       671  TIP3      H2              4.4710369196      -27.0638749578       32.0958583373  TIP3      479             0.0000000000
     23758       672  TIP3      OH2            14.6376057712      -24.4694537699       29.1688824098  TIP3      480             0.0000000000
     23759       672  TIP3      H1             15.2743873553      -25.0780733615       29.5651523362  TIP3      480             0.0000000000
     23760       672  TIP3      H2             14.7645188013      -23.6547668329       29.6723614803  TIP3      480             0.0000000000
     23761       673  TIP3      OH2             4.7800180161      -22.9601172712       29.9882259723  TIP3      481             0.0000000000
     23762       673  TIP3      H1              4.4325042840      -23.8682240350       30.0202274867  TIP3      481             0.0000000000
     23763       673  TIP3      H2              5.7055462306      -23.1949689712       29.7713813652  TIP3      481             0.0000000000
     23764       674  TIP3      OH2             1.6350857371      -29.5556080578       25.6503295560  TIP3      482             0.0000000000
     23765       674  TIP3      H1              0.9228948536      -28.9048077900       25.7665390468  TIP3      482             0.0000000000
     23766       674  TIP3      H2              1.2959887587      -30.0239494989       24.8461983866  TIP3      482             0.0000000000
     23767       675  TIP3      OH2             2.0006626165      -27.3285296420       28.0355487016  TIP3      483             0.0000000000
     23768       675  TIP3      H1              2.3866864456      -28.2014980829       28.2684919484  TIP3      483             0.0000000000
     23769       675  TIP3      H2              2.7233920460      -26.6867973956       27.9667576479  TIP3      483             0.0000000000
     23770       676  TIP3      OH2            12.6780410748      -19.2132754063       28.5007830448  TIP3      484             0.0000000000
     23771       676  TIP3      H1             13.3904707348      -19.8794986288       28.3320351706  TIP3      484             0.0000000000
     23772       676  TIP3      H2             12.4166043909      -19.4954087410       29.3872383825  TIP3      484             0.0000000000
     23773       677  TIP3      OH2             9.8747396227      -24.7433677853       31.1244653298  TIP3      485             0.0000000000
     23774       677  TIP3      H1             10.1775939256      -24.8268831891       30.2146103889  TIP3      485             0.0000000000
     23775       677  TIP3      H2             10.7491720336      -24.7948310754       31.5820512656  TIP3      485             0.0000000000
     23776       678  TIP3      OH2            18.5275966168      -33.6975435729       31.0203944782  TIP3      486             0.0000000000
     23777       678  TIP3      H1             18.6956455466      -33.0894241719       31.7733834736  TIP3      486             0.0000000000
     23778       678  TIP3      H2             19.2442292652      -33.4095697752       30.4280012732  TIP3      486             0.0000000000
     23779       679  TIP3      OH2            13.6325148281      -30.5539693765       31.1775431601  TIP3      487             0.0000000000
     23780       679  TIP3      H1             13.9491213357      -31.4244245318       31.4655857868  TIP3      487             0.0000000000
     23781       679  TIP3      H2             13.5647760456      -30.6458447166       30.2048928419  TIP3      487             0.0000000000
     23782       680  TIP3      OH2             6.2525025426      -32.1828616530       28.2969581469  TIP3      488             0.0000000000
     23783       680  TIP3      H1              7.1823796479      -32.4342802486       28.4589479423  TIP3      488             0.0000000000
     23784       680  TIP3      H2              5.9849260915      -32.8756003862       27.6635855773  TIP3      488             0.0000000000
     23785       681  TIP3      OH2            14.1135000949      -32.7697322712       26.6515148814  TIP3      489             0.0000000000
     23786       681  TIP3      H1             14.7032393572      -32.7447793019       27.4374483238  TIP3      489             0.0000000000
     23787       681  TIP3      H2             14.3509293856      -31.9492125687       26.1975295914  TIP3      489             0.0000000000
     23788       682  TIP3      OH2             3.0099701249      -29.7560233510       29.0212391319  TIP3      490             0.0000000000
     23789       682  TIP3      H1              3.5476326067      -30.2095066703       29.7108940640  TIP3      490             0.0000000000
     23790       682  TIP3      H2              2.9911906763      -30.4483893852       28.3215566385  TIP3      490             0.0000000000
     23791       683  TIP3      OH2             7.8736783371      -28.5455569059       28.2187268553  TIP3      491             0.0000000000
     23792       683  TIP3      H1              8.7398739542      -28.7699343379       28.6109553117  TIP3      491             0.0000000000
     23793       683  TIP3      H2              7.7702426679      -29.3451883021       27.6594198667  TIP3      491             0.0000000000
     23794       684  TIP3      OH2            18.7671260501      -32.3512628556       33.4999184034  TIP3      492             0.0000000000
     23795       684  TIP3      H1             18.2995030176      -31.5054927750       33.3003747100  TIP3      492             0.0000000000
     23796       684  TIP3      H2             19.1313223998      -32.1718251384       34.3810498787  TIP3      492             0.0000000000
     23797       685  TIP3      OH2             5.3011840516      -33.5394252283       32.3851568122  TIP3      493             0.0000000000
     23798       685  TIP3      H1              4.7948526821      -32.9363931714       31.8199955393  TIP3      493             0.0000000000
     23799       685  TIP3      H2              4.6607511229      -33.6290433463       33.1310954009  TIP3      493             0.0000000000
     23800       686  TIP3      OH2            12.3460554947      -23.7338877025       25.7751389866  TIP3      494             0.0000000000
     23801       686  TIP3      H1             12.2340005177      -23.5534274037       24.8113726488  TIP3      494             0.0000000000
     23802       686  TIP3      H2             12.2076016798      -22.8356476213       26.1335217291  TIP3      494             0.0000000000
     23803       687  TIP3      OH2             7.6724474412      -25.8078322591       32.1790193077  TIP3      495             0.0000000000
     23804       687  TIP3      H1              6.9879415568      -25.1152222976       32.3426388053  TIP3      495             0.0000000000
     23805       687  TIP3      H2              8.4573297028      -25.2537770427       31.9584540892  TIP3      495             0.0000000000
     23806       688  TIP3      OH2            15.8115692199      -32.6395160423       28.8203145592  TIP3      496             0.0000000000
     23807       688  TIP3      H1             15.6948444744      -33.1712265100       29.6115914023  TIP3      496             0.0000000000
     23808       688  TIP3      H2             16.7152831528      -32.3319008213       28.9780680935  TIP3      496             0.0000000000
     23809       689  TIP3      OH2             4.7798528903      -31.4090106532       30.3515228505  TIP3      497             0.0000000000
     23810       689  TIP3      H1              5.4585185103      -30.8784416621       30.8257407027  TIP3      497             0.0000000000
     23811       689  TIP3      H2              5.3168309748      -31.7377690246       29.5890678895  TIP3      497             0.0000000000
     23812       690  TIP3      OH2             6.1437748707      -23.8213613900       33.0037004495  TIP3      498             0.0000000000
     23813       690  TIP3      H1              6.2355705369      -22.9276150870       32.6297734302  TIP3      498             0.0000000000
     23814       690  TIP3      H2              5.2725330039      -23.7716965945       33.4610773580  TIP3      498             0.0000000000
     23815       691  TIP3      OH2             2.0673423132      -24.4429107854       24.3218235261  TIP3      499             0.0000000000
     23816       691  TIP3      H1              2.0337920939      -23.9544586363       23.4778249384  TIP3      499             0.0000000000
     23817       691  TIP3      H2              2.2407288262      -23.7482650050       24.9691383651  TIP3      499             0.0000000000
     23818       692  TIP3      OH2            15.7296819701      -22.6144205668       31.0914411554  TIP3      500             0.0000000000
     23819       692  TIP3      H1             14.7609026904      -22.4666512341       31.0195580469  TIP3      500             0.0000000000
     23820       692  TIP3      H2             16.0055412775      -21.7815345709       30.6625849331  TIP3      500             0.0000000000
     23821       693  TIP3      OH2            16.0544687413      -33.4474203897       32.4914535611  TIP3      501             0.0000000000
     23822       693  TIP3      H1             15.2292768946      -33.5052105708       31.9605687739  TIP3      501             0.0000000000
     23823       693  TIP3      H2             16.7276606964      -33.7021689139       31.8403781075  TIP3      501             0.0000000000
     23824       694  TIP3      OH2             9.3682126515      -35.4832489966       29.7873625936  TIP3      502             0.0000000000
     23825       694  TIP3      H1              8.9621506355      -36.2696204320       30.1839660036  TIP3      502             0.0000000000
     23826       694  TIP3      H2              8.6712745366      -34.8211053508       29.9778165222  TIP3      502             0.0000000000
     23827       695  TIP3      OH2            14.6517384238      -21.1038399405       28.1150577999  TIP3      503             0.0000000000
     23828       695  TIP3      H1             14.2818019808      -21.4047014484       27.2726618558  TIP3      503             0.0000000000
     23829       695  TIP3      H2             15.4032336768      -20.5255816203       27.8647307167  TIP3      503             0.0000000000
     23830       696  TIP3      OH2            15.5936110558      -23.3816446383       25.9396503461  TIP3      504             0.0000000000
     23831       696  TIP3      H1             14.6337078251      -23.3997508182       25.7974804044  TIP3      504             0.0000000000
     23832       696  TIP3      H2             15.6465739721      -23.6818322316       26.8574666958  TIP3      504             0.0000000000
     23833       697  TIP3      OH2            16.8776696500      -24.4411965510       34.7691933384  TIP3      505             0.0000000000
     23834       697  TIP3      H1             17.1332021443      -25.1138325849       34.0919527060  TIP3      505             0.0000000000
     23835       697  TIP3      H2             16.9382481701      -23.6271164194       34.2388311490  TIP3      505             0.0000000000
     23836       698  TIP3      OH2            11.4594504320      -27.3298748938       24.2387582343  TIP3      506             0.0000000000
     23837       698  TIP3      H1             10.7125756165      -26.7174073213       24.0488767096  TIP3      506             0.0000000000
     23838       698  TIP3      H2             11.7020779054      -27.5594250975       23.3207311701  TIP3      506             0.0000000000
     23839       699  TIP3      OH2            18.8632939460      -27.8966691631       32.5131715045  TIP3      507             0.0000000000
     23840       699  TIP3      H1             18.1834505369      -27.1916199612       32.5391448707  TIP3      507             0.0000000000
     23841       699  TIP3      H2             19.4422837451      -27.5563488123       31.7993338592  TIP3      507             0.0000000000
     23842       700  TIP3      OH2            15.2117449441      -27.4361636674       25.2722746424  TIP3      508             0.0000000000
     23843       700  TIP3      H1             14.3840486967      -27.2896007014       25.7894494774  TIP3      508             0.0000000000
     23844       700  TIP3      H2             15.7603053089      -27.9355844380       25.9031857792  TIP3      508             0.0000000000
     23845       701  TIP3      OH2            14.9500394996      -28.8354926720       34.3664407975  TIP3      509             0.0000000000
     23846       701  TIP3      H1             14.9603648266      -27.8737262765       34.5079853228  TIP3      509             0.0000000000
     23847       701  TIP3      H2             14.1804914453      -28.9255038504       33.7751668479  TIP3      509             0.0000000000
     23848       702  TIP3      OH2             6.4459423539      -26.4416831114       27.4244855500  TIP3      510             0.0000000000
     23849       702  TIP3      H1              6.4723718984      -26.5026413877       26.4605094422  TIP3      510             0.0000000000
     23850       702  TIP3      H2              7.1418337067      -27.0931593467       27.6778114014  TIP3      510             0.0000000000
     23851       703  TIP3      OH2             7.6772810475      -23.3238761255       29.5957902096  TIP3      511             0.0000000000
     23852       703  TIP3      H1              7.8492830228      -23.3501777124       28.6433168217  TIP3      511             0.0000000000
     23853       703  TIP3      H2              8.4436353413      -23.7492107773       30.0151066692  TIP3      511             0.0000000000
     23854       704  TIP3      OH2             6.9180353608      -28.0025260536       30.7373044124  TIP3      512             0.0000000000
     23855       704  TIP3      H1              7.2162057450      -27.9008022358       29.8101343532  TIP3      512             0.0000000000
     23856       704  TIP3      H2              7.3291001934      -27.2289774458       31.1906108569  TIP3      512             0.0000000000
     23857       705  TIP3      OH2            13.0301365291      -22.3462047280       31.1271219914  TIP3      513             0.0000000000
     23858       705  TIP3      H1             12.6584417356      -22.0159629885       31.9801781435  TIP3      513             0.0000000000
     23859       705  TIP3      H2             12.7457442297      -23.2785242116       31.2038202910  TIP3      513             0.0000000000
     23860       706  TIP3      OH2             7.7470999076      -23.4346473834       35.2601395775  TIP3      514             0.0000000000
     23861       706  TIP3      H1              7.2576623416      -22.6050396529       35.1129186632  TIP3      514             0.0000000000
     23862       706  TIP3      H2              7.4653066338      -23.9467569014       34.4735489584  TIP3      514             0.0000000000
     23863       707  TIP3      OH2            14.0722471950      -28.0751093096       22.8812040716  TIP3      515             0.0000000000
     23864       707  TIP3      H1             14.4809671376      -27.8037245139       23.7333799253  TIP3      515             0.0000000000
     23865       707  TIP3      H2             14.5183685721      -27.4763685353       22.2597586653  TIP3      515             0.0000000000
     23866       708  TIP3      OH2             4.7469569067      -27.1335811414       34.2631982586  TIP3      516             0.0000000000
     23867       708  TIP3      H1              4.8206866297      -26.2517580813       34.6572454753  TIP3      516             0.0000000000
     23868       708  TIP3      H2              4.0583191515      -27.5487846787       34.8118311610  TIP3      516             0.0000000000
     23869       709  TIP3      OH2            12.1695801254      -21.1354393388       26.5604788125  TIP3      517             0.0000000000
     23870       709  TIP3      H1             12.1559083211      -20.3142923270       27.0952467807  TIP3      517             0.0000000000
     23871       709  TIP3      H2             11.2745030641      -21.1052288562       26.1978718777  TIP3      517             0.0000000000
     23872       710  TIP3      OH2             5.8808943670      -21.4934665693       36.2431413667  TIP3      518             0.0000000000
     23873       710  TIP3      H1              5.7803066920      -21.0496144119       35.3705187272  TIP3      518             0.0000000000
     23874       710  TIP3      H2              4.9369226951      -21.7148811410       36.4321481558  TIP3      518             0.0000000000
     23875       711  TIP3      OH2             5.4731694218      -27.5679642084       24.5242501051  TIP3      519             0.0000000000
     23876       711  TIP3      H1              6.0894200981      -27.0295019173       23.9839146614  TIP3      519             0.0000000000
     23877       711  TIP3      H2              4.8482211364      -27.8497240363       23.8490968648  TIP3      519             0.0000000000
     23878       712  TIP3      OH2             1.8943490667      -25.1851759910       33.6775275694  TIP3      520             0.0000000000
     23879       712  TIP3      H1              1.4336367120      -25.3504898709       32.8443821862  TIP3      520             0.0000000000
     23880       712  TIP3      H2              2.0482127353      -26.1174574167       33.9638020923  TIP3      520             0.0000000000
     23881       713  TIP3      OH2             1.7299935324      -22.5070016044       30.2769522731  TIP3      521             0.0000000000
     23882       713  TIP3      H1              2.6899462584      -22.6245033132       30.3164913778  TIP3      521             0.0000000000
     23883       713  TIP3      H2              1.6363890893      -21.7917665376       30.9203869354  TIP3      521             0.0000000000
     23884       714  TIP3      OH2            19.5162833338      -21.7933379667       36.2555677071  TIP3      522             0.0000000000
     23885       714  TIP3      H1             19.4689957409      -22.7588530032       36.4213774733  TIP3      522             0.0000000000
     23886       714  TIP3      H2             18.6873561434      -21.5129306233       36.7088787448  TIP3      522             0.0000000000
     23887       715  TIP3      OH2             9.8216406317      -21.8776507750       36.1808487404  TIP3      523             0.0000000000
     23888       715  TIP3      H1             10.4285412990      -21.8910119288       35.4009330652  TIP3      523             0.0000000000
     23889       715  TIP3      H2              9.1130536774      -22.4924960972       35.9016157010  TIP3      523             0.0000000000
     23890       716  TIP3      OH2            10.6371775548      -18.0212971005       24.6823946873  TIP3      524             0.0000000000
     23891       716  TIP3      H1             10.8141892153      -17.9457539753       23.7277246756  TIP3      524             0.0000000000
     23892       716  TIP3      H2             10.8833131013      -17.1188568146       24.9892191347  TIP3      524             0.0000000000
     23893       717  TIP3      OH2             4.6452860546      -19.6821797434       26.8192285259  TIP3      525             0.0000000000
     23894       717  TIP3      H1              4.9340333523      -19.9659236391       27.7164336635  TIP3      525             0.0000000000
     23895       717  TIP3      H2              3.7886287195      -20.1521387188       26.7159059485  TIP3      525             0.0000000000
     23896       718  TIP3      OH2            13.3699397711      -19.1712941285       24.3912363810  TIP3      526             0.0000000000
     23897       718  TIP3      H1             12.4526960505      -18.9145157310       24.5702237468  TIP3      526             0.0000000000
     23898       718  TIP3      H2             13.2824488808      -20.1325510245       24.3441613715  TIP3      526             0.0000000000
     23899       719  TIP3      OH2            16.4764467111      -30.2063393858       36.4352847744  TIP3      527             0.0000000000
     23900       719  TIP3      H1             16.0461174863      -29.7487638990       35.6816348422  TIP3      527             0.0000000000
     23901       719  TIP3      H2             16.3492897780      -31.1507081989       36.2195235613  TIP3      527             0.0000000000
     23902       720  TIP3      OH2             3.9826048157      -23.8265547287       34.5367154848  TIP3      528             0.0000000000
     23903       720  TIP3      H1              3.9818579146      -24.2078977185       35.4297561638  TIP3      528             0.0000000000
     23904       720  TIP3      H2              3.1633773997      -24.2163463003       34.1432183162  TIP3      528             0.0000000000
     23905       721  TIP3      OH2             6.9257306587      -34.3922748628       30.4238264399  TIP3      529             0.0000000000
     23906       721  TIP3      H1              6.4157103185      -35.1897242757       30.2059198179  TIP3      529             0.0000000000
     23907       721  TIP3      H2              6.3226528876      -33.9805777596       31.0711332642  TIP3      529             0.0000000000
     23908       722  TIP3      OH2            11.7992737557      -36.0249273222       34.2710512278  TIP3      530             0.0000000000
     23909       722  TIP3      H1             11.7577288764      -36.1666346858       35.2255337812  TIP3      530             0.0000000000
     23910       722  TIP3      H2             10.8792662981      -35.7968280045       34.0753482894  TIP3      530             0.0000000000
     23911       723  TIP3      OH2            14.0489785189      -31.3760886680       34.8248596534  TIP3      531             0.0000000000
     23912       723  TIP3      H1             13.5360714061      -31.5601778365       35.6458569105  TIP3      531             0.0000000000
     23913       723  TIP3      H2             14.3760365394      -30.4649714208       34.9679334383  TIP3      531             0.0000000000
     23914       724  TIP3      OH2            15.3469199869      -27.3171937907       20.3664507925  TIP3      532             0.0000000000
     23915       724  TIP3      H1             14.6035132898      -27.8457515933       20.0473573169  TIP3      532             0.0000000000
     23916       724  TIP3      H2             15.0982971098      -26.3981563671       20.1911902460  TIP3      532             0.0000000000
     23917       725  TIP3      OH2             6.7957034087      -30.4326671077       31.8875077544  TIP3      533             0.0000000000
     23918       725  TIP3      H1              6.1935153856      -30.2790304421       32.6419612858  TIP3      533             0.0000000000
     23919       725  TIP3      H2              6.8701158379      -29.5003495894       31.5637961655  TIP3      533             0.0000000000
     23920       726  TIP3      OH2             6.6954071757      -30.2920743706       26.3781400674  TIP3      534             0.0000000000
     23921       726  TIP3      H1              6.1248125119      -31.0581251872       26.5797057399  TIP3      534             0.0000000000
     23922       726  TIP3      H2              7.3746060231      -30.6905413405       25.8226034250  TIP3      534             0.0000000000
     23923       727  TIP3      OH2            12.3020716928      -29.7769215627       24.9162555192  TIP3      535             0.0000000000
     23924       727  TIP3      H1             11.9901568411      -28.8696997050       24.6858592269  TIP3      535             0.0000000000
     23925       727  TIP3      H2             12.8877119039      -29.9948093409       24.1691650680  TIP3      535             0.0000000000
     23926       728  TIP3      OH2            11.1445919005      -29.4081797534       37.0127671398  TIP3      536             0.0000000000
     23927       728  TIP3      H1             10.6902843569      -30.2431442127       37.2720683721  TIP3      536             0.0000000000
     23928       728  TIP3      H2             11.9602944770      -29.4630185347       37.5372812349  TIP3      536             0.0000000000
     23929       729  TIP3      OH2            13.1778996204      -30.0296152873       28.4787348356  TIP3      537             0.0000000000
     23930       729  TIP3      H1             12.9565817631      -29.0859869894       28.3443527046  TIP3      537             0.0000000000
     23931       729  TIP3      H2             13.0309767850      -30.3694433070       27.5823594961  TIP3      537             0.0000000000
     23932       730  TIP3      OH2             3.7568889078      -30.1827630176       33.3275320773  TIP3      538             0.0000000000
     23933       730  TIP3      H1              4.3959534602      -30.0371469447       34.0343180657  TIP3      538             0.0000000000
     23934       730  TIP3      H2              3.7124906705      -31.1533229120       33.2556602585  TIP3      538             0.0000000000
     23935       731  TIP3      OH2             0.9972787534      -32.9099461792       27.7106026327  TIP3      539             0.0000000000
     23936       731  TIP3      H1              1.6587626321      -33.0082952965       28.4220670790  TIP3      539             0.0000000000
     23937       731  TIP3      H2              1.4798457730      -33.2698468909       26.9541665806  TIP3      539             0.0000000000
     23938       732  TIP3      OH2            12.3769460172      -28.7521471258       32.7139272218  TIP3      540             0.0000000000
     23939       732  TIP3      H1             12.8954518751      -29.4429975126       32.2276289763  TIP3      540             0.0000000000
     23940       732  TIP3      H2             11.8108205749      -29.2845826123       33.3198178377  TIP3      540             0.0000000000
     23941       733  TIP3      OH2             9.2332693339      -32.4762690095       27.4981609726  TIP3      541             0.0000000000
     23942       733  TIP3      H1              8.8203698706      -33.3270941333       27.2447328085  TIP3      541             0.0000000000
     23943       733  TIP3      H2              9.7092484163      -32.7138036345       28.3155036905  TIP3      541             0.0000000000
     23944       734  TIP3      OH2             3.5490419147      -31.1497201975       26.6664657797  TIP3      542             0.0000000000
     23945       734  TIP3      H1              2.9235188925      -30.8389160921       25.9723207143  TIP3      542             0.0000000000
     23946       734  TIP3      H2              3.8309389588      -32.0175049328       26.3165119769  TIP3      542             0.0000000000
     23947       735  TIP3      OH2            13.7153904516      -33.8240440264       31.0891861947  TIP3      543             0.0000000000
     23948       735  TIP3      H1             12.9263462760      -33.5370507574       31.5754431388  TIP3      543             0.0000000000
     23949       735  TIP3      H2             13.3834858887      -33.9344311765       30.1851688079  TIP3      543             0.0000000000
     23950       736  TIP3      OH2            16.5381033169      -17.8386372033       37.5565060379  TIP3      544             0.0000000000
     23951       736  TIP3      H1             16.9703526246      -17.5820163073       36.7294953744  TIP3      544             0.0000000000
     23952       736  TIP3      H2             17.2933774070      -17.7146780711       38.1704030700  TIP3      544             0.0000000000
     23953       737  TIP3      OH2             4.5598947331      -25.4378508871       37.0504409758  TIP3      545             0.0000000000
     23954       737  TIP3      H1              4.9928872097      -25.7257489494       37.8750789064  TIP3      545             0.0000000000
     23955       737  TIP3      H2              3.6221315072      -25.4766937653       37.3441883306  TIP3      545             0.0000000000
     23956       738  TIP3      OH2            10.2874035024      -29.7186985506       29.2376879779  TIP3      546             0.0000000000
     23957       738  TIP3      H1             11.0700210585      -30.2511885588       28.9919288086  TIP3      546             0.0000000000
     23958       738  TIP3      H2              9.8298454250      -30.3399947069       29.8304272061  TIP3      546             0.0000000000
     23959       739  TIP3      OH2             5.4578996975      -33.5162018532       25.9066354062  TIP3      547             0.0000000000
     23960       739  TIP3      H1              4.8206668904      -33.6403627391       25.1818236748  TIP3      547             0.0000000000
     23961       739  TIP3      H2              5.6332046336      -34.4558345579       26.0960206471  TIP3      547             0.0000000000
     23962       740  TIP3      OH2             9.3803710683      -31.4185688398       31.6386947184  TIP3      548             0.0000000000
     23963       740  TIP3      H1              8.5228611939      -30.9596702171       31.6457120314  TIP3      548             0.0000000000
     23964       740  TIP3      H2              9.8219981080      -31.0930606071       32.4363527198  TIP3      548             0.0000000000
     23965       741  TIP3      OH2             9.8458241558      -25.3449451345       23.5250574662  TIP3      549             0.0000000000
     23966       741  TIP3      H1              9.0448960678      -25.6124984051       23.0402297630  TIP3      549             0.0000000000
     23967       741  TIP3      H2              9.4721796388      -25.0029647535       24.3568979012  TIP3      549             0.0000000000
     23968       742  TIP3      OH2            17.0851794192      -25.8644138881       32.5832244058  TIP3      550             0.0000000000
     23969       742  TIP3      H1             17.5066094328      -25.2636361991       31.9208409550  TIP3      550             0.0000000000
     23970       742  TIP3      H2             16.2064622930      -25.9554239249       32.1853618719  TIP3      550             0.0000000000
     23971       743  TIP3      OH2            10.5145464480      -24.8752047840       35.0803018162  TIP3      551             0.0000000000
     23972       743  TIP3      H1             10.6484731019      -25.3254153652       35.9138086170  TIP3      551             0.0000000000
     23973       743  TIP3      H2             11.0159623604      -24.0561817970       35.1811825166  TIP3      551             0.0000000000
     23974       744  TIP3      OH2            14.3482265862      -30.7905895528       23.1870471487  TIP3      552             0.0000000000
     23975       744  TIP3      H1             15.0216873209      -30.4677826021       23.8036154639  TIP3      552             0.0000000000
     23976       744  TIP3      H2             14.2824465610      -30.0162137552       22.5901093851  TIP3      552             0.0000000000
     23977       745  TIP3      OH2             4.7973602130      -25.9087762525       29.5024544333  TIP3      553             0.0000000000
     23978       745  TIP3      H1              5.4623233488      -25.9711988325       28.7845527602  TIP3      553             0.0000000000
     23979       745  TIP3      H2              4.8751080313      -26.7722659484       29.9583536208  TIP3      553             0.0000000000
     23980       746  TIP3      OH2            12.0195254389      -23.4974334700       23.1029843244  TIP3      554             0.0000000000
     23981       746  TIP3      H1             11.4078369270      -22.7601574234       22.8978022644  TIP3      554             0.0000000000
     23982       746  TIP3      H2             11.4690264884      -24.2912107903       22.9513480890  TIP3      554             0.0000000000
     23983       747  TIP3      OH2             1.7559957168      -27.6561763934       34.7627638500  TIP3      555             0.0000000000
     23984       747  TIP3      H1              1.6875596017      -28.1841631593       35.5822921043  TIP3      555             0.0000000000
     23985       747  TIP3      H2              1.1948657268      -28.1673917478       34.1516966908  TIP3      555             0.0000000000
     23986       748  TIP3      OH2             8.5733828992      -28.0430996881       36.6076410343  TIP3      556             0.0000000000
     23987       748  TIP3      H1              8.3645459446      -28.2937919478       35.6981102258  TIP3      556             0.0000000000
     23988       748  TIP3      H2              9.5019878394      -28.3634051647       36.6608726552  TIP3      556             0.0000000000
     23989       749  TIP3      OH2            13.7273634220      -22.8813524476       35.3350019707  TIP3      557             0.0000000000
     23990       749  TIP3      H1             13.0627479535      -22.5509632647       34.6847266569  TIP3      557             0.0000000000
     23991       749  TIP3      H2             13.4280632231      -22.3527821901       36.0979425528  TIP3      557             0.0000000000
     23992       750  TIP3      OH2            19.4392594388      -24.4863090700       35.9084092039  TIP3      558             0.0000000000
     23993       750  TIP3      H1             18.5110107833      -24.4256580254       35.5862317273  TIP3      558             0.0000000000
     23994       750  TIP3      H2             19.9293670999      -24.5489303654       35.0568405609  TIP3      558             0.0000000000
     23995       751  TIP3      OH2            14.4855494995      -26.8566691837       30.8994470140  TIP3      559             0.0000000000
     23996       751  TIP3      H1             13.5974730404      -27.0457963206       30.5415066450  TIP3      559             0.0000000000
     23997       751  TIP3      H2             15.0048846287      -27.3379530445       30.2323967198  TIP3      559             0.0000000000
     23998       752  TIP3      OH2             7.0713210183      -22.3665731220       26.9000263119  TIP3      560             0.0000000000
     23999       752  TIP3      H1              7.2641284491      -21.4160106702       26.9639897700  TIP3      560             0.0000000000
     24000       752  TIP3      H2              6.4810890609      -22.3569368730       26.1340546666  TIP3      560             0.0000000000
     24001       753  TIP3      OH2             8.5350130224      -24.7112754194       26.3849159980  TIP3      561             0.0000000000
     24002       753  TIP3      H1              8.0837197122      -23.8427739399       26.3225683067  TIP3      561             0.0000000000
     24003       753  TIP3      H2              8.1523031129      -25.0721228367       27.1902354522  TIP3      561             0.0000000000
     24004       754  TIP3      OH2             8.9768111864      -20.3713253268       33.2048096574  TIP3      562             0.0000000000
     24005       754  TIP3      H1              9.5180221983      -19.6884026282       32.7600126515  TIP3      562             0.0000000000
     24006       754  TIP3      H2              9.7522200555      -20.8821105650       33.5461570533  TIP3      562             0.0000000000
     24007       755  TIP3      OH2             7.2185509481      -19.7375752553       25.9207884022  TIP3      563             0.0000000000
     24008       755  TIP3      H1              6.2882286221      -19.5766869462       26.2044870328  TIP3      563             0.0000000000
     24009       755  TIP3      H2              7.6672497922      -18.9158170552       26.2110812011  TIP3      563             0.0000000000
     24010       756  TIP3      OH2            12.3756794583      -24.9091087106       32.1961287371  TIP3      564             0.0000000000
     24011       756  TIP3      H1             12.6058076224      -24.7968861149       33.1348009962  TIP3      564             0.0000000000
     24012       756  TIP3      H2             12.9605064102      -25.6261952833       31.8898357683  TIP3      564             0.0000000000
     24013       757  TIP3      OH2            15.2242477863      -23.6037925491       21.4153240159  TIP3      565             0.0000000000
     24014       757  TIP3      H1             15.0927560314      -23.9442854246       22.3152189765  TIP3      565             0.0000000000
     24015       757  TIP3      H2             14.3310249627      -23.6637929525       21.0533642527  TIP3      565             0.0000000000
     24016       758  TIP3      OH2            15.2461743279      -20.3292560763       34.8553095900  TIP3      566             0.0000000000
     24017       758  TIP3      H1             14.3819905255      -20.7733351131       34.7260553589  TIP3      566             0.0000000000
     24018       758  TIP3      H2             15.3591367697      -19.8290841975       34.0283161496  TIP3      566             0.0000000000
     24019       759  TIP3      OH2            18.9238196834      -18.9357323438       22.1165991835  TIP3      567             0.0000000000
     24020       759  TIP3      H1             19.5429501114      -18.8058570520       21.3785960299  TIP3      567             0.0000000000
     24021       759  TIP3      H2             18.4093544157      -18.1144375210       22.1228954761  TIP3      567             0.0000000000
     24022       760  TIP3      OH2             3.2800921855      -33.0356185034       34.0343936326  TIP3      568             0.0000000000
     24023       760  TIP3      H1              2.5269769420      -32.5481537994       34.3974408038  TIP3      568             0.0000000000
     24024       760  TIP3      H2              3.2875080197      -33.8236002918       34.6123116659  TIP3      568             0.0000000000
     24025       761  TIP3      OH2            15.8258629024      -25.0660306268       23.8560972865  TIP3      569             0.0000000000
     24026       761  TIP3      H1             15.6365929327      -25.9418355524       24.2429732755  TIP3      569             0.0000000000
     24027       761  TIP3      H2             15.7325703872      -24.4853291456       24.6482537729  TIP3      569             0.0000000000
     24028       762  TIP3      OH2             3.0463403650      -21.1302231147       32.7232654370  TIP3      570             0.0000000000
     24029       762  TIP3      H1              3.7747592681      -21.7470616444       32.8903065937  TIP3      570             0.0000000000
     24030       762  TIP3      H2              3.1667573343      -20.4951643963       33.4455240680  TIP3      570             0.0000000000
     24031       763  TIP3      OH2            12.1339459811      -33.1247342108       33.5165316123  TIP3      571             0.0000000000
     24032       763  TIP3      H1             12.9408579816      -32.7109534107       33.8990033152  TIP3      571             0.0000000000
     24033       763  TIP3      H2             12.2368073479      -34.0556057136       33.7655913941  TIP3      571             0.0000000000
     24034       764  TIP3      OH2            10.7184426347      -20.9439883977       23.2170760985  TIP3      572             0.0000000000
     24035       764  TIP3      H1              9.7678137997      -20.8209772277       23.4275218838  TIP3      572             0.0000000000
     24036       764  TIP3      H2             10.9119818906      -20.0696331677       22.8176678661  TIP3      572             0.0000000000
     24037       765  TIP3      OH2            10.0406718129      -32.0266447781       24.9333074012  TIP3      573             0.0000000000
     24038       765  TIP3      H1             10.5779304574      -31.2080048075       24.8722257019  TIP3      573             0.0000000000
     24039       765  TIP3      H2              9.8381058979      -32.0995880178       25.8932441952  TIP3      573             0.0000000000
     24040       766  TIP3      OH2            11.0827811780      -30.4353763599       34.3693027424  TIP3      574             0.0000000000
     24041       766  TIP3      H1             11.2313423187      -30.1753723042       35.3050254858  TIP3      574             0.0000000000
     24042       766  TIP3      H2             11.4504700568      -31.3391598057       34.3059490687  TIP3      574             0.0000000000
     24043       767  TIP3      OH2            11.2066484732      -34.8449804716       26.3424395231  TIP3      575             0.0000000000
     24044       767  TIP3      H1             10.8859372163      -34.3737845401       27.1406834081  TIP3      575             0.0000000000
     24045       767  TIP3      H2             11.9131819221      -34.2486787961       26.0695827374  TIP3      575             0.0000000000
     24046       768  TIP3      OH2             7.9533576562      -20.1909339818       23.1967648410  TIP3      576             0.0000000000
     24047       768  TIP3      H1              8.0819471736      -19.3970215239       22.6738030172  TIP3      576             0.0000000000
     24048       768  TIP3      H2              7.4726218764      -19.8995936576       23.9887679074  TIP3      576             0.0000000000
     24049       769  TIP3      OH2            16.5351779548      -32.7894012536       35.2318668016  TIP3      577             0.0000000000
     24050       769  TIP3      H1             15.6514355175      -32.5014087275       34.9427589700  TIP3      577             0.0000000000
     24051       769  TIP3      H2             16.9604877278      -32.9413502469       34.3649058501  TIP3      577             0.0000000000
     24052       770  TIP3      OH2            15.6626609700      -28.9258064759       28.7726407441  TIP3      578             0.0000000000
     24053       770  TIP3      H1             14.9180837933      -29.5513191867       28.9003942150  TIP3      578             0.0000000000
     24054       770  TIP3      H2             16.3503788169      -29.3308897320       29.3571238926  TIP3      578             0.0000000000
     24055       771  TIP3      OH2            16.4926174864      -19.9753690034       30.8578277488  TIP3      579             0.0000000000
     24056       771  TIP3      H1             16.5582896459      -19.4327282927       30.0494773965  TIP3      579             0.0000000000
     24057       771  TIP3      H2             17.3604913534      -19.7992274592       31.2425292500  TIP3      579             0.0000000000
     24058       772  TIP3      OH2             4.2174886665      -35.5412409253       30.1060133313  TIP3      580             0.0000000000
     24059       772  TIP3      H1              3.6531693684      -35.8318340446       29.3759074891  TIP3      580             0.0000000000
     24060       772  TIP3      H2              4.7009205345      -36.3409677933       30.3510544742  TIP3      580             0.0000000000
     24061       773  TIP3      OH2             2.6809783277      -21.5312031947       26.0059900791  TIP3      581             0.0000000000
     24062       773  TIP3      H1              1.8629074259      -21.0164498580       25.9468215780  TIP3      581             0.0000000000
     24063       773  TIP3      H2              2.9929578898      -21.4043335384       25.0923339338  TIP3      581             0.0000000000
     24064       774  TIP3      OH2             1.9273238008      -18.7850976155       37.1899791467  TIP3      582             0.0000000000
     24065       774  TIP3      H1              2.5696858825      -18.9172149212       37.9138618008  TIP3      582             0.0000000000
     24066       774  TIP3      H2              1.5811112845      -19.6927570067       37.1114984372  TIP3      582             0.0000000000
     24067       775  TIP3      OH2             7.1188454421      -20.5808777713       39.0412634119  TIP3      583             0.0000000000
     24068       775  TIP3      H1              8.0708023658      -20.6408166111       39.1984990495  TIP3      583             0.0000000000
     24069       775  TIP3      H2              7.0756922927      -20.3687762637       38.1010386643  TIP3      583             0.0000000000
     24070       776  TIP3      OH2            13.0022531737      -21.3701201246       37.5444250492  TIP3      584             0.0000000000
     24071       776  TIP3      H1             12.6954537413      -22.1175923208       38.1033598977  TIP3      584             0.0000000000
     24072       776  TIP3      H2             13.9388929594      -21.3132182721       37.8209805228  TIP3      584             0.0000000000
     24073       777  TIP3      OH2             1.9318385473      -25.2848527425       37.9762582736  TIP3      585             0.0000000000
     24074       777  TIP3      H1              1.2922969728      -25.9489407179       38.2968191917  TIP3      585             0.0000000000
     24075       777  TIP3      H2              1.4522960090      -24.9164084521       37.2016895016  TIP3      585             0.0000000000
     24076       778  TIP3      OH2             8.5071021077      -25.2887146746       37.2115484609  TIP3      586             0.0000000000
     24077       778  TIP3      H1              8.6419142505      -24.7706026533       36.3835876255  TIP3      586             0.0000000000
     24078       778  TIP3      H2              8.3494599971      -26.1924975681       36.8683984234  TIP3      586             0.0000000000
     24079       779  TIP3      OH2            14.3322422861      -25.4411088957       35.0767386936  TIP3      587             0.0000000000
     24080       779  TIP3      H1             15.2515910803      -25.0916806316       35.1221897318  TIP3      587             0.0000000000
     24081       779  TIP3      H2             13.9066510653      -24.5774896764       35.2866788212  TIP3      587             0.0000000000
     24082       780  TIP3      OH2             3.4208285384      -28.2577634993       37.3641542988  TIP3      588             0.0000000000
     24083       780  TIP3      H1              4.0457828026      -28.8762155439       37.7568143445  TIP3      588             0.0000000000
     24084       780  TIP3      H2              3.3014861593      -27.6205397865       38.0887410090  TIP3      588             0.0000000000
     24085       781  TIP3      OH2             6.5351060277      -29.1651940234       34.1949938556  TIP3      589             0.0000000000
     24086       781  TIP3      H1              5.9480364387      -28.3943300166       34.3338289448  TIP3      589             0.0000000000
     24087       781  TIP3      H2              7.2874657369      -28.6986443252       33.7611549355  TIP3      589             0.0000000000
     24088       782  TIP3      OH2            12.2526674783      -26.2621841883       38.1253479853  TIP3      590             0.0000000000
     24089       782  TIP3      H1             12.7617393838      -26.8786226093       37.5805477266  TIP3      590             0.0000000000
     24090       782  TIP3      H2             11.6455636622      -26.8352031614       38.6234110109  TIP3      590             0.0000000000
     24091       783  TIP3      OH2             7.9261049367      -31.3796330366       35.5368155936  TIP3      591             0.0000000000
     24092       783  TIP3      H1              8.1433753256      -31.8750177002       34.7278310219  TIP3      591             0.0000000000
     24093       783  TIP3      H2              7.6758359654      -30.5204405548       35.1503800623  TIP3      591             0.0000000000
     24094       784  TIP3      OH2             8.0442515368      -33.2333621657       33.3282435279  TIP3      592             0.0000000000
     24095       784  TIP3      H1              8.6600144965      -32.9648503407       32.6223969134  TIP3      592             0.0000000000
     24096       784  TIP3      H2              7.2053001904      -33.0253337691       32.8691132493  TIP3      592             0.0000000000
     24097       785  TIP3      OH2             8.9224517171      -27.7231121446       33.5883631217  TIP3      593             0.0000000000
     24098       785  TIP3      H1              9.8510750702      -27.6474480717       33.3217723345  TIP3      593             0.0000000000
     24099       785  TIP3      H2              8.5066065656      -26.9362978514       33.1760973128  TIP3      593             0.0000000000
     24100       786  TIP3      OH2            13.2426638053      -29.9794440217       38.8987081572  TIP3      594             0.0000000000
     24101       786  TIP3      H1             13.5659751982      -30.8837064139       38.7249753202  TIP3      594             0.0000000000
     24102       786  TIP3      H2             14.0871862535      -29.5246519322       39.0081264904  TIP3      594             0.0000000000
     24103       787  TIP3      OH2            15.1761978569      -26.9469644768       37.1267949976  TIP3      595             0.0000000000
     24104       787  TIP3      H1             14.7392930016      -26.5602535445       36.3416884033  TIP3      595             0.0000000000
     24105       787  TIP3      H2             16.0811665266      -27.1201974512       36.7909166646  TIP3      595             0.0000000000
     24106       788  TIP3      OH2             5.8962594753      -30.6557216778       37.8118922886  TIP3      596             0.0000000000
     24107       788  TIP3      H1              5.2394682854      -31.2434995589       37.3772614850  TIP3      596             0.0000000000
     24108       788  TIP3      H2              6.3660861158      -30.2768623338       37.0558850811  TIP3      596             0.0000000000
     24109       789  TIP3      OH2             8.5729368548      -35.8749905625       33.9658783182  TIP3      597             0.0000000000
     24110       789  TIP3      H1              8.5808251075      -34.9193781058       33.7425400184  TIP3      597             0.0000000000
     24111       789  TIP3      H2              7.6825790090      -36.0883301643       33.6368533711  TIP3      597             0.0000000000
     24112       790  TIP3      OH2             9.6933146403      -31.5737585095       37.6739421640  TIP3      598             0.0000000000
     24113       790  TIP3      H1              9.0144787256      -31.8913813518       38.3195526672  TIP3      598             0.0000000000
     24114       790  TIP3      H2              9.1774527048      -31.5955159041       36.8354489441  TIP3      598             0.0000000000
     24115       791  TIP3      OH2            12.3326105597      -32.1964098483       36.7952962263  TIP3      599             0.0000000000
     24116       791  TIP3      H1             11.3834631642      -32.2283137327       37.0126456328  TIP3      599             0.0000000000
     24117       791  TIP3      H2             12.7168499950      -32.7302303008       37.5167014910  TIP3      599             0.0000000000
     24118       792  TIP3      OH2            14.4507059310      -32.9639912823       38.6912422045  TIP3      600             0.0000000000
     24119       792  TIP3      H1             14.4421419312      -33.9109520144       38.4322864145  TIP3      600             0.0000000000
     24120       792  TIP3      H2             14.1094864443      -33.0214736475       39.6190119468  TIP3      600             0.0000000000
     24121       793  TIP3      OH2             3.7876745221      -32.5517530454       37.4071626422  TIP3      601             0.0000000000
     24122       793  TIP3      H1              3.5560292647      -33.4412571068       37.0708634621  TIP3      601             0.0000000000
     24123       793  TIP3      H2              3.9124959540      -32.7316023717       38.3698321006  TIP3      601             0.0000000000
     24124       794  TIP3      OH2             8.3129343291       36.7769138809       36.5359147567  TIP3      602             0.0000000000
     24125       794  TIP3      H1              8.2493354491       35.8060539347       36.4581512022  TIP3      602             0.0000000000
     24126       794  TIP3      H2              8.4278517070       37.0383643470       35.5941062254  TIP3      602             0.0000000000
     24127       795  TIP3      OH2             8.9523726288      -35.0611508952       38.5283019957  TIP3      603             0.0000000000
     24128       795  TIP3      H1              8.6761038075      -35.7454805435       37.8682556387  TIP3      603             0.0000000000
     24129       795  TIP3      H2              9.7057131939      -34.6574656467       38.0823560715  TIP3      603             0.0000000000
     24130       796  TIP3      OH2             1.9196286279      -23.7294521129       21.5316354425  TIP3      604             0.0000000000
     24131       796  TIP3      H1              2.7457945747      -24.2380000886       21.6286396813  TIP3      604             0.0000000000
     24132       796  TIP3      H2              1.2084398942      -24.3831575036       21.4001564990  TIP3      604             0.0000000000
     24133       797  TIP3      OH2             0.9530022700      -18.3038357680       26.2900328303  TIP3      605             0.0000000000
     24134       797  TIP3      H1              0.1972540419      -18.8033837570       25.9051314090  TIP3      605             0.0000000000
     24135       797  TIP3      H2              1.2068954229      -18.8723352078       27.0487333753  TIP3      605             0.0000000000
     24136       798  TIP3      OH2             1.7560891155      -19.9348915248       28.2794648048  TIP3      606             0.0000000000
     24137       798  TIP3      H1              1.2882680488      -20.7583292569       28.4935583380  TIP3      606             0.0000000000
     24138       798  TIP3      H2              2.3413713940      -19.8074113475       29.0560442507  TIP3      606             0.0000000000
     24139       799  TIP3      OH2            19.5404094751      -19.0128477081       30.8931409039  TIP3      607             0.0000000000
     24140       799  TIP3      H1             19.1191437234      -19.2417640237       31.7284535878  TIP3      607             0.0000000000
     24141       799  TIP3      H2             19.7832761109      -18.0759348709       31.0812986958  TIP3      607             0.0000000000
     24142       800  TIP3      OH2            19.5374971733      -19.9891838598       34.1643136633  TIP3      608             0.0000000000
     24143       800  TIP3      H1             18.9095857501      -20.5929875017       33.7318090131  TIP3      608             0.0000000000
     24144       800  TIP3      H2             19.5112335265      -20.3612436398       35.0734303654  TIP3      608             0.0000000000
     24145       801  TIP3      OH2            17.7083243293      -23.9673317591       38.9126939714  TIP3      609             0.0000000000
     24146       801  TIP3      H1             16.8276238516      -23.8232638814       39.3305948207  TIP3      609             0.0000000000
     24147       801  TIP3      H2             18.1600770794      -23.1297356387       39.2037021660  TIP3      609             0.0000000000
     24148       802  TIP3      OH2            18.8954133022      -26.9921488606       25.9964579859  TIP3      610             0.0000000000
     24149       802  TIP3      H1             18.1763349063      -27.5869742144       26.2895733435  TIP3      610             0.0000000000
     24150       802  TIP3      H2             19.4391645348      -26.9552019710       26.8027307851  TIP3      610             0.0000000000
     24151       803  TIP3      OH2            18.5040489554      -24.7616548619       30.6795352024  TIP3      611             0.0000000000
     24152       803  TIP3      H1             19.2039464168      -25.4311868125       30.5009338360  TIP3      611             0.0000000000
     24153       803  TIP3      H2             18.8861955674      -23.9532844219       30.2755558805  TIP3      611             0.0000000000
     24154       804  TIP3      OH2            17.4295603445      -21.9367989321       33.2726350837  TIP3      612             0.0000000000
     24155       804  TIP3      H1             16.7189334731      -21.5267662185       33.7923632605  TIP3      612             0.0000000000
     24156       804  TIP3      H2             16.9235460443      -22.1511747332       32.4595346044  TIP3      612             0.0000000000
     24157       805  TIP3      OH2            17.2791795067      -29.0740913729       26.6378492871  TIP3      613             0.0000000000
     24158       805  TIP3      H1             16.9628141497      -29.9033995096       26.2151747035  TIP3      613             0.0000000000
     24159       805  TIP3      H2             16.6863662757      -28.9655543828       27.4114844432  TIP3      613             0.0000000000
     24160       806  TIP3      OH2             1.7008134034      -26.6446291995       30.8994065796  TIP3      614             0.0000000000
     24161       806  TIP3      H1              1.6337167334      -26.9978006908       29.9908208897  TIP3      614             0.0000000000
     24162       806  TIP3      H2              2.6631006042      -26.7607089756       31.0902193823  TIP3      614             0.0000000000
     24163       807  TIP3      OH2            18.0005298462      -27.1177357600       36.5250185905  TIP3      615             0.0000000000
     24164       807  TIP3      H1             18.4144839377      -28.0106297137       36.6567788325  TIP3      615             0.0000000000
     24165       807  TIP3      H2             18.7178212721      -26.5674238653       36.1600166222  TIP3      615             0.0000000000
     24166       808  TIP3      OH2            18.9425289498      -29.5497326584       37.0979177028  TIP3      616             0.0000000000
     24167       808  TIP3      H1             18.0638031834      -29.9115451932       36.8290865527  TIP3      616             0.0000000000
     24168       808  TIP3      H2             19.5337488819      -30.3309380713       36.9556258765  TIP3      616             0.0000000000
     24169       809  TIP3      OH2            16.3442474682      -31.2797159159       25.0187510185  TIP3      617             0.0000000000
     24170       809  TIP3      H1             16.5846098203      -32.1634604025       25.3720990709  TIP3      617             0.0000000000
     24171       809  TIP3      H2             16.5217690601      -31.4535319437       24.0747652875  TIP3      617             0.0000000000
     24172       810  TIP3      OH2            17.2929253335      -30.5486925985       30.4000167063  TIP3      618             0.0000000000
     24173       810  TIP3      H1             18.2634763255      -30.4035354897       30.5299093267  TIP3      618             0.0000000000
     24174       810  TIP3      H2             17.0129341401      -30.6408497703       31.3221870815  TIP3      618             0.0000000000
     24175       811  TIP3      OH2            17.3108996002      -30.1154777111       33.1093769102  TIP3      619             0.0000000000
     24176       811  TIP3      H1             16.4109751512      -29.7843141702       33.2992741164  TIP3      619             0.0000000000
     24177       811  TIP3      H2             17.7966542315      -29.2842395912       32.9119477434  TIP3      619             0.0000000000
     24178       812  TIP3      OH2             1.3974487644      -31.7532191385       36.5462598489  TIP3      620             0.0000000000
     24179       812  TIP3      H1              2.3154232361      -31.7263388801       36.9043469691  TIP3      620             0.0000000000
     24180       812  TIP3      H2              1.1670237042      -32.6871655944       36.7342228140  TIP3      620             0.0000000000
     24181       813  TIP3      OH2            19.4756877277      -36.4250079749       38.3965471553  TIP3      621             0.0000000000
     24182       813  TIP3      H1             19.4043755274      -37.1519447889       37.7383043215  TIP3      621             0.0000000000
     24183       813  TIP3      H2             19.1072966524      -35.6986285329       37.8567493787  TIP3      621             0.0000000000
     24184       814  TIP3      OH2            17.1550927962      -33.7816710142       25.0917266074  TIP3      622             0.0000000000
     24185       814  TIP3      H1             17.5412172253      -34.0676298708       25.9460016688  TIP3      622             0.0000000000
     24186       814  TIP3      H2             16.7599294665      -34.6103493504       24.7965702744  TIP3      622             0.0000000000
     24187       815  TIP3      OH2             2.6599572763      -33.2496244075       29.9206093873  TIP3      623             0.0000000000
     24188       815  TIP3      H1              3.1720006287      -34.0302485457       30.2230312487  TIP3      623             0.0000000000
     24189       815  TIP3      H2              3.3573952466      -32.5721176796       29.9208516750  TIP3      623             0.0000000000
     24190       816  TIP3      OH2             1.1249619720      -30.4417094097       30.8984924224  TIP3      624             0.0000000000
     24191       816  TIP3      H1              1.5394930010      -31.0278511883       30.2518613194  TIP3      624             0.0000000000
     24192       816  TIP3      H2              1.6363985296      -29.6243318910       30.8083122096  TIP3      624             0.0000000000
     24193       817  TIP3      OH2            18.9903776136      -34.0377583640       37.0223733593  TIP3      625             0.0000000000
     24194       817  TIP3      H1             18.3417525033      -33.6325069252       37.6490050032  TIP3      625             0.0000000000
     24195       817  TIP3      H2             18.3945427081      -34.2374701468       36.2788824828  TIP3      625             0.0000000000
     24196       818  TIP3      OH2            16.0204588412      -18.9861767721       27.1483666225  TIP3      626             0.0000000000
     24197       818  TIP3      H1             16.6708092665      -18.9868989652       26.4254587527  TIP3      626             0.0000000000
     24198       818  TIP3      H2             16.3930983175      -18.3460256643       27.7877684498  TIP3      626             0.0000000000
     24199       819  TIP3      OH2             1.1119478755      -35.5209467216       32.6769090919  TIP3      627             0.0000000000
     24200       819  TIP3      H1              0.6512566028      -35.3139446175       33.5063878070  TIP3      627             0.0000000000
     24201       819  TIP3      H2              0.6837798148      -34.8872617660       32.0638335758  TIP3      627             0.0000000000
     24202       820  TIP3      OH2             3.5019842762      -22.2671227654       37.0345978223  TIP3      628             0.0000000000
     24203       820  TIP3      H1              2.6181198831      -21.8839689856       36.8889737489  TIP3      628             0.0000000000
     24204       820  TIP3      H2              3.3673301063      -22.9009867332       37.7465690945  TIP3      628             0.0000000000
     24205       821  TIP3      OH2             6.3785877527      -20.7235506261       33.7946790935  TIP3      629             0.0000000000
     24206       821  TIP3      H1              6.3882415392      -19.7930361816       33.4713170124  TIP3      629             0.0000000000
     24207       821  TIP3      H2              7.3537718736      -20.8694687673       33.7618603353  TIP3      629             0.0000000000
     24208       822  TIP3      OH2            10.2956271554      -19.1795852511       36.4298928783  TIP3      630             0.0000000000
     24209       822  TIP3      H1             10.1062167328      -20.1328230206       36.2817166196  TIP3      630             0.0000000000
     24210       822  TIP3      H2             11.2584233930      -19.1551971026       36.3177273879  TIP3      630             0.0000000000
     24211       823  TIP3      OH2            12.8106531513      -18.2824035271       35.5715511973  TIP3      631             0.0000000000
     24212       823  TIP3      H1             13.4966742745      -18.9159279981       35.3469989410  TIP3      631             0.0000000000
     24213       823  TIP3      H2             13.1153145447      -17.9402578216       36.4360539830  TIP3      631             0.0000000000
     24214       824  TIP3      OH2            18.1237194073      -35.8121068046       34.9409950819  TIP3      632             0.0000000000
     24215       824  TIP3      H1             17.3249671860      -35.5042734990       34.4984426675  TIP3      632             0.0000000000
     24216       824  TIP3      H2             18.2562904484      -36.6899081213       34.5377289952  TIP3      632             0.0000000000
     24217       825  TIP3      OH2             3.5961068401      -17.7277794859       33.3769158907  TIP3      633             0.0000000000
     24218       825  TIP3      H1              2.8254438401      -17.2074653441       33.0567946234  TIP3      633             0.0000000000
     24219       825  TIP3      H2              3.5649058070      -17.4861886757       34.3107099716  TIP3      633             0.0000000000
     24220       826  TIP3      OH2             6.0188881793      -18.3095388332       32.4325770771  TIP3      634             0.0000000000
     24221       826  TIP3      H1              5.0822624725      -18.0547871018       32.6236995921  TIP3      634             0.0000000000
     24222       826  TIP3      H2              6.2768352335      -17.6273862365       31.7841567456  TIP3      634             0.0000000000
     24223       827  TIP3      OH2            10.7299982873      -18.6217043359       31.8160567408  TIP3      635             0.0000000000
     24224       827  TIP3      H1             10.1164823787      -18.0633376955       31.3055212660  TIP3      635             0.0000000000
     24225       827  TIP3      H2             11.0521734729      -17.9847974203       32.4867587346  TIP3      635             0.0000000000
     24226       828  TIP3      OH2            13.7475950690      -19.0839933016       32.3914654168  TIP3      636             0.0000000000
     24227       828  TIP3      H1             13.1122949320      -19.6023966105       31.8702607696  TIP3      636             0.0000000000
     24228       828  TIP3      H2             13.1574127636      -18.8120846943       33.1037271180  TIP3      636             0.0000000000
     24229       829  TIP3      OH2            16.6253702712      -17.8414078792       32.7801589476  TIP3      637             0.0000000000
     24230       829  TIP3      H1             16.2239875151      -16.9929837023       32.4748506294  TIP3      637             0.0000000000
     24231       829  TIP3      H2             16.0510312001      -18.4796742640       32.3031072185  TIP3      637             0.0000000000
     24232       830  TIP3      OH2             3.3022463966      -19.4301861302       30.4890140065  TIP3      638             0.0000000000
     24233       830  TIP3      H1              3.1304936186      -20.0517845205       31.2275940533  TIP3      638             0.0000000000
     24234       830  TIP3      H2              4.2211781437      -19.6930716222       30.2478685353  TIP3      638             0.0000000000
     24235       831  TIP3      OH2             5.5864085700      -20.3421425721       29.2539609643  TIP3      639             0.0000000000
     24236       831  TIP3      H1              5.4044167878      -21.2899763359       29.4346399322  TIP3      639             0.0000000000
     24237       831  TIP3      H2              6.4419216305      -20.2620941029       29.7325242173  TIP3      639             0.0000000000
     24238       832  TIP3      OH2             7.8888634909      -20.5683027951       30.6715016644  TIP3      640             0.0000000000
     24239       832  TIP3      H1              8.3180007738      -21.4311899922       30.5305398422  TIP3      640             0.0000000000
     24240       832  TIP3      H2              8.1057696316      -20.3947648987       31.6025373782  TIP3      640             0.0000000000
     24241       833  TIP3      OH2            11.3339356315      -33.7113543567       29.1603180233  TIP3      641             0.0000000000
     24242       833  TIP3      H1             10.7134536559      -34.3541461292       29.5715793729  TIP3      641             0.0000000000
     24243       833  TIP3      H2             12.0211425724      -34.3318642780       28.8601800172  TIP3      641             0.0000000000
     24244       834  TIP3      OH2            16.6977819488      -36.4175583098       29.1461462490  TIP3      642             0.0000000000
     24245       834  TIP3      H1             17.2522307804      -35.8035477825       28.6316728176  TIP3      642             0.0000000000
     24246       834  TIP3      H2             15.8086738535      -36.0816392843       29.0199146141  TIP3      642             0.0000000000
     24247       835  TIP3      OH2            18.2621486258      -34.9011018617       27.3081540327  TIP3      643             0.0000000000
     24248       835  TIP3      H1             18.9684008173      -35.5613442685       27.2121231995  TIP3      643             0.0000000000
     24249       835  TIP3      H2             18.8048177373      -34.1028552591       27.5212045749  TIP3      643             0.0000000000
     24250       836  TIP3      OH2             2.9948511361      -35.2430195121       27.0286392378  TIP3      644             0.0000000000
     24251       836  TIP3      H1              2.3224286313      -35.9009227494       27.2935367088  TIP3      644             0.0000000000
     24252       836  TIP3      H2              3.8148013619      -35.6908949494       27.2818262570  TIP3      644             0.0000000000
     24253       837  TIP3      OH2             8.5653730633      -35.0419861761       27.0385630228  TIP3      645             0.0000000000
     24254       837  TIP3      H1              9.3362216985      -35.2506699094       26.4774957477  TIP3      645             0.0000000000
     24255       837  TIP3      H2              8.7143252026      -35.6509671283       27.7805157559  TIP3      645             0.0000000000
     24256       838  TIP3      OH2            13.3292705312      -35.6569995228       28.1407606607  TIP3      646             0.0000000000
     24257       838  TIP3      H1             13.2540768552      -35.4090256678       27.2066247073  TIP3      646             0.0000000000
     24258       838  TIP3      H2             13.1396323228      -36.6115690545       28.0700712971  TIP3      646             0.0000000000
     24259       839  TIP3      OH2             2.1468934120      -20.1358580508       23.7654941263  TIP3      647             0.0000000000
     24260       839  TIP3      H1              1.3222094351      -20.0403560756       23.2538019081  TIP3      647             0.0000000000
     24261       839  TIP3      H2              2.5905809008      -19.3137559561       23.4988962862  TIP3      647             0.0000000000
     24262       840  TIP3      OH2            11.6283526275      -18.7466834055       21.9496411564  TIP3      648             0.0000000000
     24263       840  TIP3      H1             12.5364465506      -18.4430940039       22.0812500105  TIP3      648             0.0000000000
     24264       840  TIP3      H2             11.7668490340      -19.2902016667       21.1599361994  TIP3      648             0.0000000000
     24265       841  TIP3      OH2            17.7154942379      -19.4918079828       25.0026194036  TIP3      649             0.0000000000
     24266       841  TIP3      H1             18.1350975192      -19.7659777047       24.1731722640  TIP3      649             0.0000000000
     24267       841  TIP3      H2             17.0989032914      -18.8023200504       24.6471381395  TIP3      649             0.0000000000
     24268       842  TIP3      OH2             3.1240052704      -35.0163731039       36.1496834960  TIP3      650             0.0000000000
     24269       842  TIP3      H1              2.3665861995      -35.6266630958       36.1053563735  TIP3      650             0.0000000000
     24270       842  TIP3      H2              3.7854657326      -35.5040650454       36.7010784684  TIP3      650             0.0000000000
     24271       843  TIP3      OH2             4.9063745384      -36.3498269571       37.6974003593  TIP3      651             0.0000000000
     24272       843  TIP3      H1              5.5482426695      -36.7865358683       37.0929785043  TIP3      651             0.0000000000
     24273       843  TIP3      H2              4.4197681060      -37.1612732910       37.9517094542  TIP3      651             0.0000000000
     24274       844  TIP3      OH2            14.1080080952      -35.7171128736       37.9959105633  TIP3      652             0.0000000000
     24275       844  TIP3      H1             13.7954563417      -36.4942203136       38.4906368311  TIP3      652             0.0000000000
     24276       844  TIP3      H2             14.7831377029      -36.1251006834       37.4339109334  TIP3      652             0.0000000000
     24277       845  TIP3      OH2            17.1858084761      -20.4726896986       36.8642334879  TIP3      653             0.0000000000
     24278       845  TIP3      H1             16.4020663523      -20.5804130117       36.2804417837  TIP3      653             0.0000000000
     24279       845  TIP3      H2             17.0557078337      -19.5800457121       37.2192333487  TIP3      653             0.0000000000
     24280       846  TIP3      OH2            31.8928828674      -26.7812769863       26.9928415538  TIP3      654             0.0000000000
     24281       846  TIP3      H1             31.9076830187      -25.8721529791       27.3372993178  TIP3      654             0.0000000000
     24282       846  TIP3      H2             31.1661102053      -26.7380686593       26.3380467765  TIP3      654             0.0000000000
     24283       847  TIP3      OH2            30.8400487153      -28.1865983926       30.0102342870  TIP3      655             0.0000000000
     24284       847  TIP3      H1             30.7082450813      -27.7828221790       30.8973458177  TIP3      655             0.0000000000
     24285       847  TIP3      H2             29.9227525974      -28.2124937322       29.6844414816  TIP3      655             0.0000000000
     24286       848  TIP3      OH2            22.6636674142      -27.7216447838       31.5711973843  TIP3      656             0.0000000000
     24287       848  TIP3      H1             22.5542133869      -28.5189865473       32.1149511101  TIP3      656             0.0000000000
     24288       848  TIP3      H2             23.1873338987      -27.1709867581       32.1801509491  TIP3      656             0.0000000000
     24289       849  TIP3      OH2            33.9794957713      -24.4698821224       29.1312732920  TIP3      657             0.0000000000
     24290       849  TIP3      H1             33.8667547694      -25.3383084645       29.5595487458  TIP3      657             0.0000000000
     24291       849  TIP3      H2             34.1940137216      -23.9236981412       29.9052842660  TIP3      657             0.0000000000
     24292       850  TIP3      OH2            23.9621309775      -23.1868617644       30.1615142663  TIP3      658             0.0000000000
     24293       850  TIP3      H1             23.5627850064      -24.0242616880       29.8521498580  TIP3      658             0.0000000000
     24294       850  TIP3      H2             24.9041325724      -23.3867617511       29.9572925513  TIP3      658             0.0000000000
     24295       851  TIP3      OH2            20.6095539806      -29.7052300129       25.4712097076  TIP3      659             0.0000000000
     24296       851  TIP3      H1             20.3084294304      -28.8624888741       25.8311237068  TIP3      659             0.0000000000
     24297       851  TIP3      H2             19.7801452092      -30.1988195932       25.5727996110  TIP3      659             0.0000000000
     24298       852  TIP3      OH2            20.7356752280      -27.4898635303       28.0665660618  TIP3      660             0.0000000000
     24299       852  TIP3      H1             21.0640783300      -28.4061185306       28.2024331926  TIP3      660             0.0000000000
     24300       852  TIP3      H2             21.5604574703      -26.9880754858       27.9335788718  TIP3      660             0.0000000000
     24301       853  TIP3      OH2            31.2866138855      -19.2536411731       28.5979219900  TIP3      661             0.0000000000
     24302       853  TIP3      H1             31.8881240676      -19.9382600701       28.2187907302  TIP3      661             0.0000000000
     24303       853  TIP3      H2             30.9878507528      -19.7585456392       29.3720363032  TIP3      661             0.0000000000
     24304       854  TIP3      OH2            29.3710884587      -25.7569240265       30.5456199438  TIP3      662             0.0000000000
     24305       854  TIP3      H1             29.2029046389      -25.4737576393       29.6392165063  TIP3      662             0.0000000000
     24306       854  TIP3      H2             29.3687694608      -24.8944957671       31.0264129693  TIP3      662             0.0000000000
     24307       855  TIP3      OH2            32.4420495205      -30.7297178606       31.4691112181  TIP3      663             0.0000000000
     24308       855  TIP3      H1             32.0499460818      -31.6041896206       31.5669721581  TIP3      663             0.0000000000
     24309       855  TIP3      H2             32.3687250607      -30.5699284392       30.5164980735  TIP3      663             0.0000000000
     24310       856  TIP3      OH2            25.3000844824      -32.0717002125       28.1419129055  TIP3      664             0.0000000000
     24311       856  TIP3      H1             25.6097580999      -31.5158963107       27.3997300070  TIP3      664             0.0000000000
     24312       856  TIP3      H2             24.7732017713      -32.7450793130       27.6562085226  TIP3      664             0.0000000000
     24313       857  TIP3      OH2            32.7728720858      -32.3606769234       26.9225317466  TIP3      665             0.0000000000
     24314       857  TIP3      H1             33.4334337233      -32.6816889749       27.5774325061  TIP3      665             0.0000000000
     24315       857  TIP3      H2             33.3949517572      -31.8676849088       26.3439067964  TIP3      665             0.0000000000
     24316       858  TIP3      OH2            21.7406953890      -29.9709023315       28.8650906848  TIP3      666             0.0000000000
     24317       858  TIP3      H1             22.2989653299      -30.2860929869       29.5950084547  TIP3      666             0.0000000000
     24318       858  TIP3      H2             22.1949390394      -30.3894743447       28.0955520895  TIP3      666             0.0000000000
     24319       859  TIP3      OH2            26.5521095002      -28.4951519888       28.2361969349  TIP3      667             0.0000000000
     24320       859  TIP3      H1             27.3544840189      -28.9812218460       28.5287531897  TIP3      667             0.0000000000
     24321       859  TIP3      H2             26.1121451407      -29.2057663914       27.7106463538  TIP3      667             0.0000000000
     24322       860  TIP3      OH2            24.4390489952      -33.4439835196       32.4976193431  TIP3      668             0.0000000000
     24323       860  TIP3      H1             23.9023922529      -33.0673615982       31.7708521538  TIP3      668             0.0000000000
     24324       860  TIP3      H2             23.8372154331      -33.3473867383       33.2639907955  TIP3      668             0.0000000000
     24325       861  TIP3      OH2            30.9603417136      -23.9782772325       25.7268099384  TIP3      669             0.0000000000
     24326       861  TIP3      H1             30.1322966026      -24.3102087061       25.3556024220  TIP3      669             0.0000000000
     24327       861  TIP3      H2             30.7459525123      -23.0275105181       25.8348542839  TIP3      669             0.0000000000
     24328       862  TIP3      OH2            26.2927024973      -25.6175680420       31.7060206666  TIP3      670             0.0000000000
     24329       862  TIP3      H1             25.7860525549      -24.8797408293       32.1133959423  TIP3      670             0.0000000000
     24330       862  TIP3      H2             26.9978043396      -25.0970156395       31.2697383550  TIP3      670             0.0000000000
     24331       863  TIP3      OH2            34.5243461039      -32.9872756834       28.8321682064  TIP3      671             0.0000000000
     24332       863  TIP3      H1             33.9854108790      -33.2243479106       29.6063734382  TIP3      671             0.0000000000
     24333       863  TIP3      H2             35.1826820900      -32.4165474780       29.2596729305  TIP3      671             0.0000000000
     24334       864  TIP3      OH2            23.6987209348      -31.6746409772       30.2110705578  TIP3      672             0.0000000000
     24335       864  TIP3      H1             24.3215103448      -31.0663257842       30.6648267161  TIP3      672             0.0000000000
     24336       864  TIP3      H2             24.2086780578      -31.8898728931       29.3874311231  TIP3      672             0.0000000000
     24337       865  TIP3      OH2            24.9344374029      -23.5937910683       33.0996250564  TIP3      673             0.0000000000
     24338       865  TIP3      H1             24.7777255354      -22.8171203223       32.5543546743  TIP3      673             0.0000000000
     24339       865  TIP3      H2             24.0971114919      -23.7091541636       33.6100963217  TIP3      673             0.0000000000
     24340       866  TIP3      OH2            34.6454011908      -22.5503804542       31.1346786178  TIP3      674             0.0000000000
     24341       866  TIP3      H1             33.6892112246      -22.6026784270       31.3516228365  TIP3      674             0.0000000000
     24342       866  TIP3      H2             34.6805401650      -21.6243422982       30.8426145216  TIP3      674             0.0000000000
     24343       867  TIP3      OH2            34.8700091021      -33.5909772889       32.4130130994  TIP3      675             0.0000000000
     24344       867  TIP3      H1             33.9299223625      -33.3417786918       32.3499680605  TIP3      675             0.0000000000
     24345       867  TIP3      H2             35.2544075914      -32.8861151400       31.8534498817  TIP3      675             0.0000000000
     24346       868  TIP3      OH2            28.0691660194      -35.6571039222       29.4945156534  TIP3      676             0.0000000000
     24347       868  TIP3      H1             27.7996307053      -36.3649504956       30.0963249903  TIP3      676             0.0000000000
     24348       868  TIP3      H2             27.3588985571      -35.0032136400       29.6997426389  TIP3      676             0.0000000000
     24349       869  TIP3      OH2            32.9808826206      -20.9134019662       27.4669028004  TIP3      677             0.0000000000
     24350       869  TIP3      H1             33.4406701460      -21.6771816229       27.0463734918  TIP3      677             0.0000000000
     24351       869  TIP3      H2             33.6073321811      -20.1939788112       27.2424180385  TIP3      677             0.0000000000
     24352       870  TIP3      OH2            34.4612592221      -22.8622925491       26.1976883804  TIP3      678             0.0000000000
     24353       870  TIP3      H1             34.7652462655      -23.4661407545       25.4930306278  TIP3      678             0.0000000000
     24354       870  TIP3      H2             34.2890448421      -23.4846130564       26.9339845598  TIP3      678             0.0000000000
     24355       871  TIP3      OH2            35.6182875092      -24.4750391090       34.8999207370  TIP3      679             0.0000000000
     24356       871  TIP3      H1             35.4324729096      -25.0725185832       34.1399082982  TIP3      679             0.0000000000
     24357       871  TIP3      H2             35.6454541676      -23.5937886737       34.4569558545  TIP3      679             0.0000000000
     24358       872  TIP3      OH2            30.5531043260      -27.1824824151       24.5821793178  TIP3      680             0.0000000000
     24359       872  TIP3      H1             29.8372047230      -26.5908010476       24.2936872600  TIP3      680             0.0000000000
     24360       872  TIP3      H2             31.1277785198      -27.1913554566       23.7972490345  TIP3      680             0.0000000000
     24361       873  TIP3      OH2            30.1549470471      -28.3841668892       21.5961273296  TIP3      681             0.0000000000
     24362       873  TIP3      H1             30.9889062950      -28.2557803053       22.0839893106  TIP3      681             0.0000000000
     24363       873  TIP3      H2             30.3035097225      -29.2797803764       21.2549727293  TIP3      681             0.0000000000
     24364       874  TIP3      OH2            33.9502133249      -27.5104602309       25.0789568025  TIP3      682             0.0000000000
     24365       874  TIP3      H1             33.3029503533      -27.1964434335       25.7482395409  TIP3      682             0.0000000000
     24366       874  TIP3      H2             34.7146773156      -27.6788151473       25.6688240543  TIP3      682             0.0000000000
     24367       875  TIP3      OH2            34.1725359488      -28.3781087816       33.6803244882  TIP3      683             0.0000000000
     24368       875  TIP3      H1             33.7956158819      -28.5795618535       34.5601049539  TIP3      683             0.0000000000
     24369       875  TIP3      H2             33.3202801022      -28.2967096038       33.2148222495  TIP3      683             0.0000000000
     24370       876  TIP3      OH2            25.7023401230      -26.0947932055       27.7398569263  TIP3      684             0.0000000000
     24371       876  TIP3      H1             25.3647359162      -26.4610294589       26.9102487246  TIP3      684             0.0000000000
     24372       876  TIP3      H2             26.1864909587      -26.8927901256       28.0509767311  TIP3      684             0.0000000000
     24373       877  TIP3      OH2            26.5373288047      -23.2015228724       29.4564788170  TIP3      685             0.0000000000
     24374       877  TIP3      H1             26.7805298855      -22.9714546767       28.5438321663  TIP3      685             0.0000000000
     24375       877  TIP3      H2             27.3733496570      -23.1858053615       29.9804354730  TIP3      685             0.0000000000
     24376       878  TIP3      OH2            25.7589659755      -28.1086707982       30.7399828165  TIP3      686             0.0000000000
     24377       878  TIP3      H1             26.0186348914      -28.0347375399       29.7990802016  TIP3      686             0.0000000000
     24378       878  TIP3      H2             25.9806750412      -27.2075813376       31.0618960012  TIP3      686             0.0000000000
     24379       879  TIP3      OH2            32.0581743867      -22.1867443238       31.5914005114  TIP3      687             0.0000000000
     24380       879  TIP3      H1             31.8618006052      -21.6748997593       32.3887555495  TIP3      687             0.0000000000
     24381       879  TIP3      H2             31.5458561442      -22.9946200390       31.8057354692  TIP3      687             0.0000000000
     24382       880  TIP3      OH2            26.5666300777      -23.4929959244       35.3015709831  TIP3      688             0.0000000000
     24383       880  TIP3      H1             25.9491718964      -22.9194510295       35.8097570594  TIP3      688             0.0000000000
     24384       880  TIP3      H2             26.1322611816      -23.5322506651       34.4226673322  TIP3      688             0.0000000000
     24385       881  TIP3      OH2            32.6175277155      -27.9902199322       22.8103889136  TIP3      689             0.0000000000
     24386       881  TIP3      H1             33.2589958698      -27.8514902789       23.5341220912  TIP3      689             0.0000000000
     24387       881  TIP3      H2             32.9121104782      -28.8988612241       22.5350537334  TIP3      689             0.0000000000
     24388       882  TIP3      OH2            23.7073488109      -27.2681339780       34.2787461172  TIP3      690             0.0000000000
     24389       882  TIP3      H1             23.9332147418      -26.4563717316       34.7543881359  TIP3      690             0.0000000000
     24390       882  TIP3      H2             22.8851898343      -27.5073175140       34.7411005494  TIP3      690             0.0000000000
     24391       883  TIP3      OH2            29.9982525847      -21.3238706304       25.8526855393  TIP3      691             0.0000000000
     24392       883  TIP3      H1             30.1885009924      -20.9053302032       26.7008747586  TIP3      691             0.0000000000
     24393       883  TIP3      H2             29.6679479716      -20.5427480128       25.3565049045  TIP3      691             0.0000000000
     24394       884  TIP3      OH2            24.8431054481      -21.7016571836       36.2946720698  TIP3      692             0.0000000000
     24395       884  TIP3      H1             24.7162496924      -21.3061363665       35.4040827544  TIP3      692             0.0000000000
     24396       884  TIP3      H2             23.9319368655      -22.0117129008       36.4897690947  TIP3      692             0.0000000000
     24397       885  TIP3      OH2            35.5728437780      -35.9647595231       23.7292625640  TIP3      693             0.0000000000
     24398       885  TIP3      H1             35.4879396918      -36.9360222257       23.6854304862  TIP3      693             0.0000000000
     24399       885  TIP3      H2             35.5684261825      -35.7153989714       22.7979643273  TIP3      693             0.0000000000
     24400       886  TIP3      OH2            24.5763958917      -27.6116229503       24.1565193227  TIP3      694             0.0000000000
     24401       886  TIP3      H1             24.0266318313      -26.9003344936       23.7683135674  TIP3      694             0.0000000000
     24402       886  TIP3      H2             23.9443768620      -28.1928591576       24.5975960307  TIP3      694             0.0000000000
     24403       887  TIP3      OH2            20.6591395254      -25.1598059074       33.6983880949  TIP3      695             0.0000000000
     24404       887  TIP3      H1             20.2904961736      -25.2262950076       32.8093181720  TIP3      695             0.0000000000
     24405       887  TIP3      H2             20.8115114300      -26.1064070544       33.9029322354  TIP3      695             0.0000000000
     24406       888  TIP3      OH2            20.0771941889      -22.4689235475       30.2578764367  TIP3      696             0.0000000000
     24407       888  TIP3      H1             20.9782314163      -22.6421893024       29.9653085511  TIP3      696             0.0000000000
     24408       888  TIP3      H2             20.2349074745      -21.8008578621       30.9428549161  TIP3      696             0.0000000000
     24409       889  TIP3      OH2            29.1889878764      -22.1300266787       35.4185422027  TIP3      697             0.0000000000
     24410       889  TIP3      H1             29.3008547646      -21.1899754419       35.1905954333  TIP3      697             0.0000000000
     24411       889  TIP3      H2             28.4014859444      -22.3654952931       34.8917336509  TIP3      697             0.0000000000
     24412       890  TIP3      OH2            30.1093883007      -18.6821759179       24.8540268353  TIP3      698             0.0000000000
     24413       890  TIP3      H1             30.1783541966      -18.4267917470       23.9045959088  TIP3      698             0.0000000000
     24414       890  TIP3      H2             29.9355436098      -17.8190917370       25.2728429894  TIP3      698             0.0000000000
     24415       891  TIP3      OH2            23.3997006400      -19.5115430117       26.9657803847  TIP3      699             0.0000000000
     24416       891  TIP3      H1             23.8787880764      -19.8159029292       27.7683430309  TIP3      699             0.0000000000
     24417       891  TIP3      H2             22.5470424953      -19.9378877844       27.1497608351  TIP3      699             0.0000000000
     24418       892  TIP3      OH2            32.5575329978      -19.6522547262       21.7024399663  TIP3      700             0.0000000000
     24419       892  TIP3      H1             33.4653190272      -19.7974657150       21.3343018826  TIP3      700             0.0000000000
     24420       892  TIP3      H2             32.7268833967      -19.9079555269       22.6170621372  TIP3      700             0.0000000000
     24421       893  TIP3      OH2            32.7419855331      -19.3805666684       24.7530278321  TIP3      701             0.0000000000
     24422       893  TIP3      H1             31.8355148871      -19.0398466537       24.8587189849  TIP3      701             0.0000000000
     24423       893  TIP3      H2             32.7215907714      -20.1481790675       25.3422416330  TIP3      701             0.0000000000
     24424       894  TIP3      OH2            35.5515451110      -29.8164744331       36.5724505036  TIP3      702             0.0000000000
     24425       894  TIP3      H1             35.0295039750      -30.0988367050       35.8070891606  TIP3      702             0.0000000000
     24426       894  TIP3      H2             36.2398985824      -30.5246813425       36.5975249024  TIP3      702             0.0000000000
     24427       895  TIP3      OH2            22.8509804709      -23.9544199941       34.7102922887  TIP3      703             0.0000000000
     24428       895  TIP3      H1             22.9717986379      -24.3805775684       35.5903461571  TIP3      703             0.0000000000
     24429       895  TIP3      H2             21.9866278644      -24.3277917118       34.4259516630  TIP3      703             0.0000000000
     24430       896  TIP3      OH2            25.9202665032      -34.3615165469       30.4065021994  TIP3      704             0.0000000000
     24431       896  TIP3      H1             25.2864725016      -35.0776099081       30.2677747566  TIP3      704             0.0000000000
     24432       896  TIP3      H2             25.4972594638      -33.8937686521       31.1602593680  TIP3      704             0.0000000000
     24433       897  TIP3      OH2            30.6014935015      -35.8858321595       34.4091147447  TIP3      705             0.0000000000
     24434       897  TIP3      H1             30.5563828486      -35.9709347622       35.3711749807  TIP3      705             0.0000000000
     24435       897  TIP3      H2             29.7033815684      -35.5962241874       34.1749124420  TIP3      705             0.0000000000
     24436       898  TIP3      OH2            33.1123237402      -32.1526438683       34.7237852659  TIP3      706             0.0000000000
     24437       898  TIP3      H1             32.8415598122      -32.2830345814       35.6540661241  TIP3      706             0.0000000000
     24438       898  TIP3      H2             33.0199741260      -31.1771583360       34.7136354984  TIP3      706             0.0000000000
     24439       899  TIP3      OH2            25.6163247886      -30.4817301698       31.8732029300  TIP3      707             0.0000000000
     24440       899  TIP3      H1             24.9451725150      -30.2819326478       32.5411551886  TIP3      707             0.0000000000
     24441       899  TIP3      H2             25.6929736884      -29.6095971883       31.4127219157  TIP3      707             0.0000000000
     24442       900  TIP3      OH2            25.5167307411      -30.0866140824       26.3841302536  TIP3      708             0.0000000000
     24443       900  TIP3      H1             24.5958339365      -30.4272812398       26.3848296198  TIP3      708             0.0000000000
     24444       900  TIP3      H2             25.7892936515      -30.2707993401       25.4495819636  TIP3      708             0.0000000000
     24445       901  TIP3      OH2            31.4462204931      -29.8117622294       24.7882843831  TIP3      709             0.0000000000
     24446       901  TIP3      H1             31.0539760106      -28.9131927275       24.8071659903  TIP3      709             0.0000000000
     24447       901  TIP3      H2             32.3787542971      -29.6127090915       24.5939933187  TIP3      709             0.0000000000
     24448       902  TIP3      OH2            29.5606238957      -29.2270868165       37.2537958636  TIP3      710             0.0000000000
     24449       902  TIP3      H1             29.2926163792      -30.1297126636       37.5410538184  TIP3      710             0.0000000000
     24450       902  TIP3      H2             30.5146309827      -29.3411713185       37.0859552548  TIP3      710             0.0000000000
     24451       903  TIP3      OH2            32.4008421822      -29.9349093644       28.3539146439  TIP3      711             0.0000000000
     24452       903  TIP3      H1             31.7962903704      -29.1708215524       28.2852245074  TIP3      711             0.0000000000
     24453       903  TIP3      H2             32.0641797913      -30.5719745653       27.7004615134  TIP3      711             0.0000000000
     24454       904  TIP3      OH2            22.8090608874      -30.2911155089       33.1341809290  TIP3      712             0.0000000000
     24455       904  TIP3      H1             23.3053504090      -30.1366295875       33.9456419633  TIP3      712             0.0000000000
     24456       904  TIP3      H2             22.5979012254      -31.2422210482       33.2083688669  TIP3      712             0.0000000000
     24457       905  TIP3      OH2            20.0382550784      -32.6620187773       27.5935458245  TIP3      713             0.0000000000
     24458       905  TIP3      H1             20.6080276312      -32.7934028376       28.3846786080  TIP3      713             0.0000000000
     24459       905  TIP3      H2             20.6707955543      -32.8235409807       26.8831411140  TIP3      713             0.0000000000
     24460       906  TIP3      OH2            20.8778085966      -32.2103879159       23.2278990144  TIP3      714             0.0000000000
     24461       906  TIP3      H1             21.6319128525      -31.6553231298       22.9807427290  TIP3      714             0.0000000000
     24462       906  TIP3      H2             20.1269745412      -31.7716308343       22.7976931142  TIP3      714             0.0000000000
     24463       907  TIP3      OH2            31.4075800843      -28.5410544170       32.7251929831  TIP3      715             0.0000000000
     24464       907  TIP3      H1             31.8417877920      -29.2665987362       32.2198537808  TIP3      715             0.0000000000
     24465       907  TIP3      H2             30.8657539807      -29.0515211363       33.3511238411  TIP3      715             0.0000000000
     24466       908  TIP3      OH2            28.1815678207      -32.7560036645       27.7518629345  TIP3      716             0.0000000000
     24467       908  TIP3      H1             27.3439724447      -32.9625316564       28.1972756613  TIP3      716             0.0000000000
     24468       908  TIP3      H2             28.8315244612      -32.9518360684       28.4634960480  TIP3      716             0.0000000000
     24469       909  TIP3      OH2            22.8941770220      -31.0230156305       26.4781948024  TIP3      717             0.0000000000
     24470       909  TIP3      H1             22.1511110973      -30.7978433575       25.8839753110  TIP3      717             0.0000000000
     24471       909  TIP3      H2             23.1131295321      -31.9623740241       26.2539665563  TIP3      717             0.0000000000
     24472       910  TIP3      OH2            26.3462541042      -30.5764797201       23.9451137176  TIP3      718             0.0000000000
     24473       910  TIP3      H1             27.2940713521      -30.7470720543       24.0299951675  TIP3      718             0.0000000000
     24474       910  TIP3      H2             26.2257143663      -30.1855788380       23.0691894886  TIP3      718             0.0000000000
     24475       911  TIP3      OH2            32.2116452497      -33.7493675935       30.9406767750  TIP3      719             0.0000000000
     24476       911  TIP3      H1             31.8738591188      -33.5671483781       31.8456660501  TIP3      719             0.0000000000
     24477       911  TIP3      H2             31.3771335703      -33.7196653704       30.4267100969  TIP3      719             0.0000000000
     24478       912  TIP3      OH2            35.3514984977      -17.9676770295       37.2970100801  TIP3      720             0.0000000000
     24479       912  TIP3      H1             35.4060101370      -17.5324322115       36.4318189138  TIP3      720             0.0000000000
     24480       912  TIP3      H2             36.1637699913      -17.6497908666       37.7123383458  TIP3      720             0.0000000000
     24481       913  TIP3      OH2            23.3089756774      -25.5233363767       36.9388252194  TIP3      721             0.0000000000
     24482       913  TIP3      H1             23.9523222594      -25.4726975752       37.6907641445  TIP3      721             0.0000000000
     24483       913  TIP3      H2             22.4590889625      -25.5556094305       37.4265520451  TIP3      721             0.0000000000
     24484       914  TIP3      OH2            28.4655674283      -29.7107620018       29.5138411948  TIP3      722             0.0000000000
     24485       914  TIP3      H1             29.3404111155      -30.1100140023       29.4347905816  TIP3      722             0.0000000000
     24486       914  TIP3      H2             28.0720629531      -30.3502049761       30.1439790316  TIP3      722             0.0000000000
     24487       915  TIP3      OH2            23.7458290695      -33.5485576404       26.5834529146  TIP3      723             0.0000000000
     24488       915  TIP3      H1             23.2275596097      -34.3799616595       26.5644055241  TIP3      723             0.0000000000
     24489       915  TIP3      H2             24.3298875423      -33.7132330260       25.8006727256  TIP3      723             0.0000000000
     24490       916  TIP3      OH2            28.0832823643      -31.3292592552       31.7172462599  TIP3      724             0.0000000000
     24491       916  TIP3      H1             27.1816787309      -30.9326495669       31.7787440410  TIP3      724             0.0000000000
     24492       916  TIP3      H2             28.5477869103      -30.8623270162       32.4301847357  TIP3      724             0.0000000000
     24493       917  TIP3      OH2            28.6907000252      -25.0662685273       23.8192624916  TIP3      725             0.0000000000
     24494       917  TIP3      H1             28.0244454910      -25.6535904044       23.3988281354  TIP3      725             0.0000000000
     24495       917  TIP3      H2             28.1086051036      -24.6264152917       24.4779438991  TIP3      725             0.0000000000
     24496       918  TIP3      OH2            35.4766016802      -25.6949487778       32.6423952134  TIP3      726             0.0000000000
     24497       918  TIP3      H1             35.9313717096      -25.9338867927       31.8028561256  TIP3      726             0.0000000000
     24498       918  TIP3      H2             34.7193741512      -26.3038516655       32.6104256091  TIP3      726             0.0000000000
     24499       919  TIP3      OH2            29.8185820530      -24.6972475751       34.7856518275  TIP3      727             0.0000000000
     24500       919  TIP3      H1             29.5534131797      -25.2997001736       35.4860415355  TIP3      727             0.0000000000
     24501       919  TIP3      H2             29.5985228193      -23.8333229558       35.1803807039  TIP3      727             0.0000000000
     24502       920  TIP3      OH2            23.5565375968      -25.7918196177       29.3101519571  TIP3      728             0.0000000000
     24503       920  TIP3      H1             24.4368185193      -25.8195577771       28.8609507084  TIP3      728             0.0000000000
     24504       920  TIP3      H2             23.6025402244      -26.5537250356       29.9079347060  TIP3      728             0.0000000000
     24505       921  TIP3      OH2            20.6822588887      -27.7222685350       34.8615225944  TIP3      729             0.0000000000
     24506       921  TIP3      H1             20.5262256387      -28.2596515131       35.6530346945  TIP3      729             0.0000000000
     24507       921  TIP3      H2             20.1160798066      -28.1592361199       34.1994585025  TIP3      729             0.0000000000
     24508       922  TIP3      OH2            27.3276703713      -27.8193568638       36.5218291291  TIP3      730             0.0000000000
     24509       922  TIP3      H1             27.0407578235      -28.4644791657       35.8628860651  TIP3      730             0.0000000000
     24510       922  TIP3      H2             28.2720654290      -28.0702101328       36.6048440618  TIP3      730             0.0000000000
     24511       923  TIP3      OH2            32.4505554206      -22.6400714412       34.9248741480  TIP3      731             0.0000000000
     24512       923  TIP3      H1             31.6238310501      -22.9612356446       34.5305257166  TIP3      731             0.0000000000
     24513       923  TIP3      H2             32.1290204778      -22.3119517783       35.7788488600  TIP3      731             0.0000000000
     24514       924  TIP3      OH2            33.2748850091      -26.7072242317       30.6436628301  TIP3      732             0.0000000000
     24515       924  TIP3      H1             32.4542974631      -26.9859412507       30.1980647984  TIP3      732             0.0000000000
     24516       924  TIP3      H2             33.8914364840      -27.3913887474       30.3222105206  TIP3      732             0.0000000000
     24517       925  TIP3      OH2            25.7688058639      -22.3278366991       26.8209005776  TIP3      733             0.0000000000
     24518       925  TIP3      H1             26.2926145322      -21.5127517888       26.6464029403  TIP3      733             0.0000000000
     24519       925  TIP3      H2             24.9007841675      -21.9669425721       26.6112419924  TIP3      733             0.0000000000
     24520       926  TIP3      OH2            27.3479124247      -24.4581412309       26.0512756440  TIP3      734             0.0000000000
     24521       926  TIP3      H1             26.7737114738      -23.7316657026       26.3772842431  TIP3      734             0.0000000000
     24522       926  TIP3      H2             27.2060644422      -25.1300283776       26.7418900580  TIP3      734             0.0000000000
     24523       927  TIP3      OH2            27.7919757281      -20.5856691637       33.2603395052  TIP3      735             0.0000000000
     24524       927  TIP3      H1             28.4650298812      -19.9183992368       33.0535522140  TIP3      735             0.0000000000
     24525       927  TIP3      H2             28.2000116952      -21.3935873611       32.8639003378  TIP3      735             0.0000000000
     24526       928  TIP3      OH2            26.1067462745      -19.6963334881       26.0600915571  TIP3      736             0.0000000000
     24527       928  TIP3      H1             25.1907388066      -19.3870372514       26.1968177752  TIP3      736             0.0000000000
     24528       928  TIP3      H2             26.5404245514      -18.9098026438       25.7007628574  TIP3      736             0.0000000000
     24529       929  TIP3      OH2            31.5345513703      -24.7217910458       32.6176328128  TIP3      737             0.0000000000
     24530       929  TIP3      H1             30.8842841129      -24.9250341577       33.3254708273  TIP3      737             0.0000000000
     24531       929  TIP3      H2             31.6500675718      -25.5828690608       32.1725519272  TIP3      737             0.0000000000
     24532       930  TIP3      OH2            34.7778603851      -20.0980165715       34.6526831332  TIP3      738             0.0000000000
     24533       930  TIP3      H1             33.9182336238      -20.5517989285       34.5349898339  TIP3      738             0.0000000000
     24534       930  TIP3      H2             34.7368405574      -19.4023977861       33.9558847589  TIP3      738             0.0000000000
     24535       931  TIP3      OH2            22.4937988952      -32.9374398676       34.5036359856  TIP3      739             0.0000000000
     24536       931  TIP3      H1             22.2890223109      -32.4022348703       35.2854649786  TIP3      739             0.0000000000
     24537       931  TIP3      H2             22.0969889934      -33.7906438035       34.7285071387  TIP3      739             0.0000000000
     24538       932  TIP3      OH2            34.5911029682      -24.7530247520       24.0940671377  TIP3      740             0.0000000000
     24539       932  TIP3      H1             34.3691719848      -25.6889619098       24.1850862276  TIP3      740             0.0000000000
     24540       932  TIP3      H2             35.5793773707      -24.7524766673       24.0746795754  TIP3      740             0.0000000000
     24541       933  TIP3      OH2            21.8493220242      -21.1550372472       32.6057155833  TIP3      741             0.0000000000
     24542       933  TIP3      H1             22.5162338292      -21.8370104888       32.8018708511  TIP3      741             0.0000000000
     24543       933  TIP3      H2             21.3583570567      -21.0458180733       33.4369581746  TIP3      741             0.0000000000
     24544       934  TIP3      OH2            23.4261783078      -25.4128067587       23.0921814353  TIP3      742             0.0000000000
     24545       934  TIP3      H1             23.5560505614      -24.8573831559       23.8672702540  TIP3      742             0.0000000000
     24546       934  TIP3      H2             23.8338622461      -24.8980160764       22.3681789607  TIP3      742             0.0000000000
     24547       935  TIP3      OH2            31.2133155296      -33.2624254033       33.3052923915  TIP3      743             0.0000000000
     24548       935  TIP3      H1             31.9402468675      -32.8348532567       33.8251188685  TIP3      743             0.0000000000
     24549       935  TIP3      H2             31.2731255592      -34.1627589172       33.6682802078  TIP3      743             0.0000000000
     24550       936  TIP3      OH2            31.6370886552      -33.2800643272       24.7084216962  TIP3      744             0.0000000000
     24551       936  TIP3      H1             31.3494607056      -32.3825552257       24.4664889684  TIP3      744             0.0000000000
     24552       936  TIP3      H2             32.1132114185      -33.0895966680       25.5512788742  TIP3      744             0.0000000000
     24553       937  TIP3      OH2            28.8338182989      -31.6909505441       25.2765534414  TIP3      745             0.0000000000
     24554       937  TIP3      H1             29.5287425769      -31.0157012896       25.3679033632  TIP3      745             0.0000000000
     24555       937  TIP3      H2             28.5278792805      -31.8561804219       26.2050894044  TIP3      745             0.0000000000
     24556       938  TIP3      OH2            30.0371030220      -30.6200598478       34.3439377569  TIP3      746             0.0000000000
     24557       938  TIP3      H1             30.3889772248      -30.2556595324       35.1804415358  TIP3      746             0.0000000000
     24558       938  TIP3      H2             30.5055767798      -31.4729598288       34.2887896541  TIP3      746             0.0000000000
     24559       939  TIP3      OH2            29.8603133199      -34.8486759775       26.0758705026  TIP3      747             0.0000000000
     24560       939  TIP3      H1             29.6064137585      -34.1129578694       26.6631776428  TIP3      747             0.0000000000
     24561       939  TIP3      H2             30.4651593729      -34.3733755181       25.4687663760  TIP3      747             0.0000000000
     24562       940  TIP3      OH2            25.1319693478      -33.5871666443       24.3705142454  TIP3      748             0.0000000000
     24563       940  TIP3      H1             24.7972516129      -33.2891271876       23.5093381219  TIP3      748             0.0000000000
     24564       940  TIP3      H2             25.9915142039      -33.9411464252       24.0754458683  TIP3      748             0.0000000000
     24565       941  TIP3      OH2            35.7087965389      -33.2652619229       35.4412393866  TIP3      749             0.0000000000
     24566       941  TIP3      H1             35.0402786523      -32.5939936296       35.2281190590  TIP3      749             0.0000000000
     24567       941  TIP3      H2             35.7280073221      -33.7112194329       34.5771846675  TIP3      749             0.0000000000
     24568       942  TIP3      OH2            34.5398457675      -28.7864838592       29.4885981191  TIP3      750             0.0000000000
     24569       942  TIP3      H1             33.7875170665      -29.3128967429       29.1335670072  TIP3      750             0.0000000000
     24570       942  TIP3      H2             35.1179809665      -29.4459440372       29.9075468117  TIP3      750             0.0000000000
     24571       943  TIP3      OH2            35.8873890105      -19.6612279932       31.0691996597  TIP3      751             0.0000000000
     24572       943  TIP3      H1             35.5519392109      -19.0984162530       30.3401885969  TIP3      751             0.0000000000
     24573       943  TIP3      H2             36.8012929878      -19.7679145459       30.7720111410  TIP3      751             0.0000000000
     24574       944  TIP3      OH2            22.8516486757      -35.6691650087       30.1061392244  TIP3      752             0.0000000000
     24575       944  TIP3      H1             22.7342874136      -35.9187633054       29.1729188092  TIP3      752             0.0000000000
     24576       944  TIP3      H2             23.0922991815      -36.5131124155       30.5026409884  TIP3      752             0.0000000000
     24577       945  TIP3      OH2            21.7573155774      -21.7221457754       26.0410855178  TIP3      753             0.0000000000
     24578       945  TIP3      H1             20.9996817025      -21.1327186889       25.9643793211  TIP3      753             0.0000000000
     24579       945  TIP3      H2             22.3878393038      -21.3535387492       25.4085627349  TIP3      753             0.0000000000
     24580       946  TIP3      OH2            20.8968241215      -18.7555434954       37.1575027954  TIP3      754             0.0000000000
     24581       946  TIP3      H1             21.4846440003      -18.8701186799       37.9466290243  TIP3      754             0.0000000000
     24582       946  TIP3      H2             20.5615406739      -19.6638373944       37.0963878744  TIP3      754             0.0000000000
     24583       947  TIP3      OH2            25.8228123570      -20.4542148300       38.9116471034  TIP3      755             0.0000000000
     24584       947  TIP3      H1             26.7579284721      -20.6604198381       38.7209651620  TIP3      755             0.0000000000
     24585       947  TIP3      H2             25.3829876996      -20.9012145761       38.1638941619  TIP3      755             0.0000000000
     24586       948  TIP3      OH2            31.9491143477      -21.4912684936       37.5483432810  TIP3      756             0.0000000000
     24587       948  TIP3      H1             31.7014780669      -22.3885406482       37.8622178310  TIP3      756             0.0000000000
     24588       948  TIP3      H2             32.8546604729      -21.4291646053       37.9151474939  TIP3      756             0.0000000000
     24589       949  TIP3      OH2            20.7195914574      -25.3897286313       38.1227650373  TIP3      757             0.0000000000
     24590       949  TIP3      H1             20.3570274603      -26.2901881193       38.1525264622  TIP3      757             0.0000000000
     24591       949  TIP3      H2             20.2790148368      -25.0244557112       37.3156536175  TIP3      757             0.0000000000
     24592       950  TIP3      OH2            25.5216106694      -25.4883973542       20.4412917260  TIP3      758             0.0000000000
     24593       950  TIP3      H1             26.0952090085      -25.7396808604       21.1846803501  TIP3      758             0.0000000000
     24594       950  TIP3      H2             26.1722646574      -25.2366087797       19.7796549313  TIP3      758             0.0000000000
     24595       951  TIP3      OH2            27.4962626884      -25.2792592797       37.0443498826  TIP3      759             0.0000000000
     24596       951  TIP3      H1             27.2999331632      -24.6517134607       36.3120736548  TIP3      759             0.0000000000
     24597       951  TIP3      H2             27.3119209759      -26.1722996655       36.6576054867  TIP3      759             0.0000000000
     24598       952  TIP3      OH2            32.9778305850      -25.4315046433       34.9652639214  TIP3      760             0.0000000000
     24599       952  TIP3      H1             33.6843892471      -24.8164098697       35.2545682244  TIP3      760             0.0000000000
     24600       952  TIP3      H2             32.6298440501      -24.9558361340       34.1818642169  TIP3      760             0.0000000000
     24601       953  TIP3      OH2            22.1430243763      -28.3008252995       37.5223442227  TIP3      761             0.0000000000
     24602       953  TIP3      H1             23.0645192447      -28.5236119162       37.3604374006  TIP3      761             0.0000000000
     24603       953  TIP3      H2             22.2315311852      -27.7900221442       38.3572158461  TIP3      761             0.0000000000
     24604       954  TIP3      OH2            26.7941852507      -26.7053540197       22.6423431277  TIP3      762             0.0000000000
     24605       954  TIP3      H1             26.0546092175      -27.0376685432       23.2001524850  TIP3      762             0.0000000000
     24606       954  TIP3      H2             27.1085009349      -27.5225857131       22.2246229827  TIP3      762             0.0000000000
     24607       955  TIP3      OH2            25.7098963285      -29.0662929988       34.5360275221  TIP3      763             0.0000000000
     24608       955  TIP3      H1             24.9341440957      -28.4765140268       34.6217050275  TIP3      763             0.0000000000
     24609       955  TIP3      H2             26.2807983402      -28.4862771058       33.9854005920  TIP3      763             0.0000000000
     24610       956  TIP3      OH2            30.9103491740      -26.2865568201       38.2749654308  TIP3      764             0.0000000000
     24611       956  TIP3      H1             31.3980167946      -26.7659964563       37.5850389607  TIP3      764             0.0000000000
     24612       956  TIP3      H2             30.7449622710      -26.9781634717       38.9334215645  TIP3      764             0.0000000000
     24613       957  TIP3      OH2            26.8259167915      -31.3257056250       35.4392666557  TIP3      765             0.0000000000
     24614       957  TIP3      H1             27.0406185047      -31.8970486604       34.6732462890  TIP3      765             0.0000000000
     24615       957  TIP3      H2             26.6664052279      -30.4705198054       34.9779427210  TIP3      765             0.0000000000
     24616       958  TIP3      OH2            27.1772340029      -33.2587846862       33.5059287562  TIP3      766             0.0000000000
     24617       958  TIP3      H1             27.7701833216      -32.8835569422       32.8259729439  TIP3      766             0.0000000000
     24618       958  TIP3      H2             26.3184223131      -33.1441922086       33.0397175188  TIP3      766             0.0000000000
     24619       959  TIP3      OH2            27.6120404302      -27.4965600757       33.2504493128  TIP3      767             0.0000000000
     24620       959  TIP3      H1             28.4857445867      -27.0869881473       33.1204241368  TIP3      767             0.0000000000
     24621       959  TIP3      H2             27.0680488886      -26.8788009286       32.7165468253  TIP3      767             0.0000000000
     24622       960  TIP3      OH2            32.2593820756      -30.0124127747       39.1157923741  TIP3      768             0.0000000000
     24623       960  TIP3      H1             32.3514625724      -30.9798092388       39.0835704884  TIP3      768             0.0000000000
     24624       960  TIP3      H2             32.4570926778      -29.8076419667       38.1663789073  TIP3      768             0.0000000000
     24625       961  TIP3      OH2            33.5133973624      -26.8282063333       37.1994945407  TIP3      769             0.0000000000
     24626       961  TIP3      H1             33.2667475455      -26.2434999107       36.4372260380  TIP3      769             0.0000000000
     24627       961  TIP3      H2             33.1201746848      -27.6761783463       36.8852561165  TIP3      769             0.0000000000
     24628       962  TIP3      OH2            25.0313790993      -30.7020254166       37.8149712114  TIP3      770             0.0000000000
     24629       962  TIP3      H1             24.2650015670      -31.1079088260       37.3749174033  TIP3      770             0.0000000000
     24630       962  TIP3      H2             25.6307802698      -30.6054252011       37.0540660173  TIP3      770             0.0000000000
     24631       963  TIP3      OH2            27.3966560692      -36.0070038867       33.8489778801  TIP3      771             0.0000000000
     24632       963  TIP3      H1             27.3743655608      -35.0334694554       33.6849346644  TIP3      771             0.0000000000
     24633       963  TIP3      H2             26.4625074174      -36.2361886048       33.7440156145  TIP3      771             0.0000000000
     24634       964  TIP3      OH2            28.4594748206      -31.6106812108       37.6902834282  TIP3      772             0.0000000000
     24635       964  TIP3      H1             27.7988482974      -31.7047321378       38.3954971370  TIP3      772             0.0000000000
     24636       964  TIP3      H2             27.9146010071      -31.6724414084       36.8715951016  TIP3      772             0.0000000000
     24637       965  TIP3      OH2            30.9957850048      -32.4534095921       36.8349500896  TIP3      773             0.0000000000
     24638       965  TIP3      H1             30.0216412788      -32.4072252047       36.8230757070  TIP3      773             0.0000000000
     24639       965  TIP3      H2             31.1301336779      -32.7959203805       37.7330534209  TIP3      773             0.0000000000
     24640       966  TIP3      OH2            33.5771919621      -33.0070813269       38.8137059909  TIP3      774             0.0000000000
     24641       966  TIP3      H1             33.3841414232      -33.8814999301       38.4168276630  TIP3      774             0.0000000000
     24642       966  TIP3      H2             33.1090139207      -33.0769394595       39.6752472967  TIP3      774             0.0000000000
     24643       967  TIP3      OH2            22.6800649032      -32.7560894371       37.4448816272  TIP3      775             0.0000000000
     24644       967  TIP3      H1             22.4320185731      -33.6743118162       37.1882380303  TIP3      775             0.0000000000
     24645       967  TIP3      H2             22.7257207947      -32.8340880740       38.4285654587  TIP3      775             0.0000000000
     24646       968  TIP3      OH2            27.4717550323       36.8397126787       36.6140644142  TIP3      776             0.0000000000
     24647       968  TIP3      H1             27.7839979905       35.9397266169       36.7657519986  TIP3      776             0.0000000000
     24648       968  TIP3      H2             27.5237239557       36.9494139258       35.6415244286  TIP3      776             0.0000000000
     24649       969  TIP3      OH2            27.1987721435      -35.2396672959       39.0274503826  TIP3      777             0.0000000000
     24650       969  TIP3      H1             27.4790973468      -35.5494989403       38.1410312122  TIP3      777             0.0000000000
     24651       969  TIP3      H2             27.0756577589      -34.2781052938       38.8864979934  TIP3      777             0.0000000000
     24652       970  TIP3      OH2            19.6163177785      -18.2104233471       26.3668607376  TIP3      778             0.0000000000
     24653       970  TIP3      H1             18.9233200047      -18.8005884554       25.9942548223  TIP3      778             0.0000000000
     24654       970  TIP3      H2             19.8887158446      -18.7254072115       27.1565571930  TIP3      778             0.0000000000
     24655       971  TIP3      OH2            20.2776800624      -19.9941917843       28.2751592045  TIP3      779             0.0000000000
     24656       971  TIP3      H1             19.8978132012      -20.8839397507       28.3321640069  TIP3      779             0.0000000000
     24657       971  TIP3      H2             19.9835280053      -19.6525566345       29.1543143349  TIP3      779             0.0000000000
     24658       972  TIP3      OH2            35.5858578910      -24.0623017352       38.4406099219  TIP3      780             0.0000000000
     24659       972  TIP3      H1             35.1023799346      -23.8476174117       39.2684272866  TIP3      780             0.0000000000
     24660       972  TIP3      H2             35.9010664617      -23.1902317726       38.1715604217  TIP3      780             0.0000000000
     24661       973  TIP3      OH2            36.1503194858      -22.2158815321       33.3982460377  TIP3      781             0.0000000000
     24662       973  TIP3      H1             35.6789581637      -21.4389398897       33.7445113861  TIP3      781             0.0000000000
     24663       973  TIP3      H2             35.7471229432      -22.3056975614       32.5045616159  TIP3      781             0.0000000000
     24664       974  TIP3      OH2            35.6225939612      -28.6817263116       26.8654684948  TIP3      782             0.0000000000
     24665       974  TIP3      H1             34.9159941345      -29.2971605949       27.1038653960  TIP3      782             0.0000000000
     24666       974  TIP3      H2             35.7690677664      -28.2396996744       27.7273347624  TIP3      782             0.0000000000
     24667       975  TIP3      OH2            20.4366173921      -26.6640370702       30.6621213651  TIP3      783             0.0000000000
     24668       975  TIP3      H1             20.4610593071      -27.0220559048       29.7481407836  TIP3      783             0.0000000000
     24669       975  TIP3      H2             21.3615969293      -26.8423340989       30.9389060426  TIP3      783             0.0000000000
     24670       976  TIP3      OH2            36.5752952468      -27.4100400716       36.6394487096  TIP3      784             0.0000000000
     24671       976  TIP3      H1             35.9593999800      -28.1737119306       36.4388989776  TIP3      784             0.0000000000
     24672       976  TIP3      H2             36.2319103455      -26.7033202214       36.0655724258  TIP3      784             0.0000000000
     24673       977  TIP3      OH2            34.8953697099      -31.7656875307       25.2070079981  TIP3      785             0.0000000000
     24674       977  TIP3      H1             35.5296926778      -32.1960103635       25.8056737748  TIP3      785             0.0000000000
     24675       977  TIP3      H2             35.4861035882      -31.3087349349       24.5861297766  TIP3      785             0.0000000000
     24676       978  TIP3      OH2            35.6058805767      -31.4809937782       30.8503449952  TIP3      786             0.0000000000
     24677       978  TIP3      H1             36.5260206005      -31.6340496374       30.5610927995  TIP3      786             0.0000000000
     24678       978  TIP3      H2             35.7154331664      -30.7079738978       31.4352906770  TIP3      786             0.0000000000
     24679       979  TIP3      OH2            36.2660709560      -30.3687036261       33.9225153216  TIP3      787             0.0000000000
     24680       979  TIP3      H1             35.4716209174      -29.8976215522       33.6208697335  TIP3      787             0.0000000000
     24681       979  TIP3      H2             36.8946265055      -30.1842540047       33.2006283439  TIP3      787             0.0000000000
     24682       980  TIP3      OH2            20.3986965730      -31.7023517204       36.6039123817  TIP3      788             0.0000000000
     24683       980  TIP3      H1             21.2806572995      -31.8967953728       36.9849796756  TIP3      788             0.0000000000
     24684       980  TIP3      H2             19.9087439156      -32.5285940849       36.8018205618  TIP3      788             0.0000000000
     24685       981  TIP3      OH2            34.9734799679      -34.5456605572       25.7785295595  TIP3      789             0.0000000000
     24686       981  TIP3      H1             35.7253051585      -34.5394784334       26.3964039358  TIP3      789             0.0000000000
     24687       981  TIP3      H2             35.2696113691      -35.0794097596       25.0153995696  TIP3      789             0.0000000000
     24688       982  TIP3      OH2            21.4114458441      -33.2366521946       29.7713368765  TIP3      790             0.0000000000
     24689       982  TIP3      H1             21.7725228447      -34.0915553769       30.0763632703  TIP3      790             0.0000000000
     24690       982  TIP3      H2             22.1921569442      -32.6509049675       29.8489974255  TIP3      790             0.0000000000
     24691       983  TIP3      OH2            19.9017363516      -30.3100453797       30.7906925526  TIP3      791             0.0000000000
     24692       983  TIP3      H1             20.3457137826      -30.6190964588       29.9789735007  TIP3      791             0.0000000000
     24693       983  TIP3      H2             20.3507525197      -29.4676858410       30.9295695045  TIP3      791             0.0000000000
     24694       984  TIP3      OH2            20.0983184941      -34.0752059982       24.9881597897  TIP3      792             0.0000000000
     24695       984  TIP3      H1             19.1287932787      -34.1029587411       24.9259648996  TIP3      792             0.0000000000
     24696       984  TIP3      H2             20.2940489140      -33.3672092734       24.3298891999  TIP3      792             0.0000000000
     24697       985  TIP3      OH2            34.8184603867      -19.1037237478       26.7176600506  TIP3      793             0.0000000000
     24698       985  TIP3      H1             35.4520938929      -19.7582063568       26.3736522039  TIP3      793             0.0000000000
     24699       985  TIP3      H2             35.1608454881      -18.9066305581       27.6082545869  TIP3      793             0.0000000000
     24700       986  TIP3      OH2            20.0109851063      -35.5422187568       32.6447417225  TIP3      794             0.0000000000
     24701       986  TIP3      H1             19.6412578217      -35.4004739446       33.5282826998  TIP3      794             0.0000000000
     24702       986  TIP3      H2             19.5472440675      -34.8784864132       32.1071374089  TIP3      794             0.0000000000
     24703       987  TIP3      OH2            22.2721491460      -22.3223870876       37.0258214459  TIP3      795             0.0000000000
     24704       987  TIP3      H1             21.4161777978      -21.9451296838       36.7753516884  TIP3      795             0.0000000000
     24705       987  TIP3      H2             22.1068440747      -22.6043463875       37.9280877413  TIP3      795             0.0000000000
     24706       988  TIP3      OH2            25.0921303824      -20.7275569058       33.7742432181  TIP3      796             0.0000000000
     24707       988  TIP3      H1             25.2401580498      -19.8344489283       33.4016167614  TIP3      796             0.0000000000
     24708       988  TIP3      H2             26.0333058152      -20.9985220041       33.7945193381  TIP3      796             0.0000000000
     24709       989  TIP3      OH2            29.5593644817      -19.1666466794       36.1243490939  TIP3      797             0.0000000000
     24710       989  TIP3      H1             29.6726436942      -19.7634779328       36.8825194377  TIP3      797             0.0000000000
     24711       989  TIP3      H2             30.4986035661      -19.0042955436       35.8944259563  TIP3      797             0.0000000000
     24712       990  TIP3      OH2            31.8851691842      -17.7214221760       35.5956127227  TIP3      798             0.0000000000
     24713       990  TIP3      H1             32.6633830935      -18.1447660909       35.2179503610  TIP3      798             0.0000000000
     24714       990  TIP3      H2             32.0567586574      -17.6455011491       36.5617803077  TIP3      798             0.0000000000
     24715       991  TIP3      OH2            22.5868873290      -18.0682735421       33.4427710940  TIP3      799             0.0000000000
     24716       991  TIP3      H1             22.3330540833      -18.9525219185       33.1080418286  TIP3      799             0.0000000000
     24717       991  TIP3      H2             23.2942490195      -18.2815206029       34.0705213624  TIP3      799             0.0000000000
     24718       992  TIP3      OH2            25.2630116848      -18.2018317037       32.4510528624  TIP3      800             0.0000000000
     24719       992  TIP3      H1             24.2901456589      -18.1189914536       32.4410424005  TIP3      800             0.0000000000
     24720       992  TIP3      H2             25.4685441955      -17.8262468707       31.5722081324  TIP3      800             0.0000000000
     24721       993  TIP3      OH2            29.9983273581      -18.5728278054       31.4794019995  TIP3      801             0.0000000000
     24722       993  TIP3      H1             29.5292515655      -18.0353225196       30.8344387420  TIP3      801             0.0000000000
     24723       993  TIP3      H2             29.9202680217      -18.0124637776       32.2766319250  TIP3      801             0.0000000000
     24724       994  TIP3      OH2            31.9338654361      -19.7559091332       33.2569362423  TIP3      802             0.0000000000
     24725       994  TIP3      H1             31.2799588352      -19.5743325876       32.5560430491  TIP3      802             0.0000000000
     24726       994  TIP3      H2             32.6318814852      -19.1354424212       32.9997316474  TIP3      802             0.0000000000
     24727       995  TIP3      OH2            34.3488421882      -18.2123560576       32.6649982233  TIP3      803             0.0000000000
     24728       995  TIP3      H1             34.9170481158      -17.4563562548       32.8741976568  TIP3      803             0.0000000000
     24729       995  TIP3      H2             34.9313840111      -18.6886393435       32.0268114894  TIP3      803             0.0000000000
     24730       996  TIP3      OH2            22.3373179764      -19.2939342807       30.7334839828  TIP3      804             0.0000000000
     24731       996  TIP3      H1             21.7750278621      -19.9804675659       31.1448412797  TIP3      804             0.0000000000
     24732       996  TIP3      H2             23.0019790602      -19.8479773062       30.2624318818  TIP3      804             0.0000000000
     24733       997  TIP3      OH2            24.1605266855      -20.6084400390       29.3705311726  TIP3      805             0.0000000000
     24734       997  TIP3      H1             24.1013886223      -21.5801616256       29.5403531684  TIP3      805             0.0000000000
     24735       997  TIP3      H2             25.0450700328      -20.4381065835       29.7553025361  TIP3      805             0.0000000000
     24736       998  TIP3      OH2            26.6804151379      -20.3978763378       30.3484302247  TIP3      806             0.0000000000
     24737       998  TIP3      H1             26.8118439653      -21.3377633661       30.1175809483  TIP3      806             0.0000000000
     24738       998  TIP3      H2             27.0549219340      -20.3937746601       31.2479919558  TIP3      806             0.0000000000
     24739       999  TIP3      OH2            30.1420686388      -33.7218021757       29.2212863274  TIP3      807             0.0000000000
     24740       999  TIP3      H1             29.6349689377      -34.5308035835       29.4392514700  TIP3      807             0.0000000000
     24741       999  TIP3      H2             30.8974993276      -34.1253549483       28.7483150187  TIP3      807             0.0000000000
     24742      1000  TIP3      OH2            35.0809029886      -35.6420367951       29.3011274743  TIP3      808             0.0000000000
     24743      1000  TIP3      H1             35.9544286015      -35.7807644847       28.8994770070  TIP3      808             0.0000000000
     24744      1000  TIP3      H2             34.7833911190      -34.8508020942       28.8166454382  TIP3      808             0.0000000000
     24745      1001  TIP3      OH2            22.4970828793      -35.8233640943       26.8734112849  TIP3      809             0.0000000000
     24746      1001  TIP3      H1             21.6915847512      -35.9854575009       27.4148275063  TIP3      809             0.0000000000
     24747      1001  TIP3      H2             23.0697091542      -36.5561556649       27.1933032188  TIP3      809             0.0000000000
     24748      1002  TIP3      OH2            21.8226294054      -35.1514935758       22.6465594153  TIP3      810             0.0000000000
     24749      1002  TIP3      H1             22.2939448190      -35.1931138331       21.7821509849  TIP3      810             0.0000000000
     24750      1002  TIP3      H2             21.7379179684      -34.2054851350       22.8626414385  TIP3      810             0.0000000000
     24751      1003  TIP3      OH2            27.3113289059      -35.6919091819       26.7897060451  TIP3      811             0.0000000000
     24752      1003  TIP3      H1             27.8848537930      -35.1112465033       26.2530026577  TIP3      811             0.0000000000
     24753      1003  TIP3      H2             27.6880113549      -35.5722153597       27.6805421339  TIP3      811             0.0000000000
     24754      1004  TIP3      OH2            31.8414609852      -35.7889958720       28.4427487178  TIP3      812             0.0000000000
     24755      1004  TIP3      H1             32.4433349878      -35.1195391419       28.0930214906  TIP3      812             0.0000000000
     24756      1004  TIP3      H2             32.3794635296      -36.5939400107       28.3871335743  TIP3      812             0.0000000000
     24757      1005  TIP3      OH2            27.7970021199      -34.2484416810       24.0393293731  TIP3      813             0.0000000000
     24758      1005  TIP3      H1             28.5073767187      -34.7118395513       24.5126684211  TIP3      813             0.0000000000
     24759      1005  TIP3      H2             28.1857496223      -33.3659334357       23.9172453224  TIP3      813             0.0000000000
     24760      1006  TIP3      OH2            30.5177725699      -17.7168150626       22.2773341298  TIP3      814             0.0000000000
     24761      1006  TIP3      H1             31.1237365818      -18.2418872714       21.7104067974  TIP3      814             0.0000000000
     24762      1006  TIP3      H2             29.6978293461      -17.8578136894       21.7515032320  TIP3      814             0.0000000000
     24763      1007  TIP3      OH2            22.1583810511      -35.2353219968       36.4575662401  TIP3      815             0.0000000000
     24764      1007  TIP3      H1             21.6696215436      -36.0343382846       36.2215290572  TIP3      815             0.0000000000
     24765      1007  TIP3      H2             23.0921726887      -35.5310020323       36.4982214261  TIP3      815             0.0000000000
     24766      1008  TIP3      OH2            24.3156182570      -35.7840272396       38.1072356126  TIP3      816             0.0000000000
     24767      1008  TIP3      H1             25.0635156054      -35.3571559639       37.6531922611  TIP3      816             0.0000000000
     24768      1008  TIP3      H2             24.7656445486      -36.5974070497       38.4161271321  TIP3      816             0.0000000000
     24769      1009  TIP3      OH2            33.1915330535      -35.7926686650       37.8382978280  TIP3      817             0.0000000000
     24770      1009  TIP3      H1             32.7642947017      -36.5709888076       38.2342236110  TIP3      817             0.0000000000
     24771      1009  TIP3      H2             34.0615756404      -36.1626301231       37.5875572964  TIP3      817             0.0000000000
     24772      1010  TIP3      OH2            35.9808046093      -20.6564983214       37.0420844362  TIP3      818             0.0000000000
     24773      1010  TIP3      H1             35.7129182884      -20.7784267629       36.1059671152  TIP3      818             0.0000000000
     24774      1010  TIP3      H2             35.6562715648      -19.7265042954       37.1557878839  TIP3      818             0.0000000000
     24775      1011  TIP3      OH2           -25.0958234335       -8.0630792726       26.2925682310  TIP3      819             0.0000000000
     24776      1011  TIP3      H1            -24.6929699215       -7.1929407177       26.4991830617  TIP3      819             0.0000000000
     24777      1011  TIP3      H2            -25.9760374713       -7.7253784249       26.0877393758  TIP3      819             0.0000000000
     24778      1012  TIP3      OH2           -26.1897589879       -8.6174877405       30.7263230533  TIP3      820             0.0000000000
     24779      1012  TIP3      H1            -26.0826592821       -9.1268735489       31.5610307949  TIP3      820             0.0000000000
     24780      1012  TIP3      H2            -26.7839097136       -9.1938959715       30.2146923059  TIP3      820             0.0000000000
     24781      1013  TIP3      OH2           -33.6647168918       -8.6673998829       31.5517230338  TIP3      821             0.0000000000
     24782      1013  TIP3      H1            -33.8394007876       -9.3412956457       32.2212287161  TIP3      821             0.0000000000
     24783      1013  TIP3      H2            -32.7784607742       -8.3544396636       31.8135675429  TIP3      821             0.0000000000
     24784      1014  TIP3      OH2           -32.9077711482       -4.3171885979       30.1034085462  TIP3      822             0.0000000000
     24785      1014  TIP3      H1            -33.1328666925       -5.2689296953       30.0545115769  TIP3      822             0.0000000000
     24786      1014  TIP3      H2            -31.9640822207       -4.4273613124       29.8932384887  TIP3      822             0.0000000000
     24787      1015  TIP3      OH2           -36.1545295684      -10.8332343015       25.4203996909  TIP3      823             0.0000000000
     24788      1015  TIP3      H1            -36.8062509258      -10.1495534174       25.6299610977  TIP3      823             0.0000000000
     24789      1015  TIP3      H2            -36.7256347847      -11.6174310305       25.2669647484  TIP3      823             0.0000000000
     24790      1016  TIP3      OH2           -35.1176031913       -8.8143437078       28.2663776811  TIP3      824             0.0000000000
     24791      1016  TIP3      H1            -35.3834969125       -9.7492725762       28.2373950137  TIP3      824             0.0000000000
     24792      1016  TIP3      H2            -34.8820631266       -8.6421286471       27.3413257749  TIP3      824             0.0000000000
     24793      1017  TIP3      OH2           -25.0865263063       -0.4558860679       28.4584369654  TIP3      825             0.0000000000
     24794      1017  TIP3      H1            -24.2797571988       -0.9158303086       28.1214060897  TIP3      825             0.0000000000
     24795      1017  TIP3      H2            -25.2828419229       -0.9992125713       29.2373290202  TIP3      825             0.0000000000
     24796      1018  TIP3      OH2           -27.9166950030       -5.8154048024       31.1908702613  TIP3      826             0.0000000000
     24797      1018  TIP3      H1            -27.5574281439       -6.2859635613       30.4346021660  TIP3      826             0.0000000000
     24798      1018  TIP3      H2            -27.1038632952       -5.7230788604       31.7338535925  TIP3      826             0.0000000000
     24799      1019  TIP3      OH2           -19.2427943225      -14.5431048503       30.7393624767  TIP3      827             0.0000000000
     24800      1019  TIP3      H1            -19.0703542429      -14.2816996033       31.6614975409  TIP3      827             0.0000000000
     24801      1019  TIP3      H2            -18.3554384034      -14.4247774705       30.3396750556  TIP3      827             0.0000000000
     24802      1020  TIP3      OH2           -24.1646905330      -11.6711179514       31.2977989690  TIP3      828             0.0000000000
     24803      1020  TIP3      H1            -24.1207541461      -12.6498828914       31.1994930105  TIP3      828             0.0000000000
     24804      1020  TIP3      H2            -24.5631845130      -11.4764669144       30.4215221756  TIP3      828             0.0000000000
     24805      1021  TIP3      OH2           -31.6912088610      -13.7104821404       28.1319405921  TIP3      829             0.0000000000
     24806      1021  TIP3      H1            -31.4170073729      -12.9748472225       27.5478302388  TIP3      829             0.0000000000
     24807      1021  TIP3      H2            -31.7374760268      -14.4190814476       27.4478803675  TIP3      829             0.0000000000
     24808      1022  TIP3      OH2           -23.6839746520      -13.9089882503       26.5759700839  TIP3      830             0.0000000000
     24809      1022  TIP3      H1            -23.3260173388      -14.0931553824       27.4748238304  TIP3      830             0.0000000000
     24810      1022  TIP3      H2            -23.3589010224      -13.0151507084       26.4453927622  TIP3      830             0.0000000000
     24811      1023  TIP3      OH2           -35.5392049201      -11.6004492908       28.8623455511  TIP3      831             0.0000000000
     24812      1023  TIP3      H1            -34.6290001705      -11.7653932659       29.1679402439  TIP3      831             0.0000000000
     24813      1023  TIP3      H2            -35.5664521916      -12.1316359390       28.0367221357  TIP3      831             0.0000000000
     24814      1024  TIP3      OH2           -29.6186070928       -9.5536603849       28.3113116833  TIP3      832             0.0000000000
     24815      1024  TIP3      H1            -28.7751852983       -9.9120895529       28.6406263207  TIP3      832             0.0000000000
     24816      1024  TIP3      H2            -30.0325535889      -10.3681519026       27.9535368460  TIP3      832             0.0000000000
     24817      1025  TIP3      OH2           -19.0214857706      -13.4720535011       33.3617590801  TIP3      833             0.0000000000
     24818      1025  TIP3      H1            -19.2954677079      -12.5968159977       33.0176703747  TIP3      833             0.0000000000
     24819      1025  TIP3      H2            -18.5703546578      -13.1819251776       34.1691093426  TIP3      833             0.0000000000
     24820      1026  TIP3      OH2           -32.2818587652      -14.5152331060       32.1764099925  TIP3      834             0.0000000000
     24821      1026  TIP3      H1            -32.5964138389      -14.0158101953       31.3979516154  TIP3      834             0.0000000000
     24822      1026  TIP3      H2            -32.9917424186      -14.3151337275       32.8281476514  TIP3      834             0.0000000000
     24823      1027  TIP3      OH2           -25.0676592053       -5.3367448340       26.2281287823  TIP3      835             0.0000000000
     24824      1027  TIP3      H1            -25.3696659771       -5.1229883151       25.3318107204  TIP3      835             0.0000000000
     24825      1027  TIP3      H2            -25.3294913147       -4.5076262606       26.6820379477  TIP3      835             0.0000000000
     24826      1028  TIP3      OH2           -30.1410665971       -6.9768216972       32.1412928866  TIP3      836             0.0000000000
     24827      1028  TIP3      H1            -30.7621074446       -6.2285891406       32.2810254240  TIP3      836             0.0000000000
     24828      1028  TIP3      H2            -29.3856897714       -6.4778754572       31.7563010676  TIP3      836             0.0000000000
     24829      1029  TIP3      OH2           -22.1957594767      -14.0055422092       28.6973081500  TIP3      837             0.0000000000
     24830      1029  TIP3      H1            -21.8630237041      -14.4109147167       29.5101456109  TIP3      837             0.0000000000
     24831      1029  TIP3      H2            -21.3579846016      -13.6611680784       28.3552275421  TIP3      837             0.0000000000
     24832      1030  TIP3      OH2           -33.0823825124      -12.6346094708       30.1716816764  TIP3      838             0.0000000000
     24833      1030  TIP3      H1            -32.4094005992      -12.0631643419       30.6102949778  TIP3      838             0.0000000000
     24834      1030  TIP3      H2            -32.5839438389      -12.9416833424       29.3753414460  TIP3      838             0.0000000000
     24835      1031  TIP3      OH2           -31.5047834664       -4.7545775711       33.0550103432  TIP3      839             0.0000000000
     24836      1031  TIP3      H1            -31.7090356917       -4.0404084660       32.4346441143  TIP3      839             0.0000000000
     24837      1031  TIP3      H2            -32.3653192727       -4.8050864566       33.5292355575  TIP3      839             0.0000000000
     24838      1032  TIP3      OH2           -35.2756991448       -4.8942169247       23.6678865122  TIP3      840             0.0000000000
     24839      1032  TIP3      H1            -35.6750451343       -5.5124989028       23.0188727058  TIP3      840             0.0000000000
     24840      1032  TIP3      H2            -35.0806158315       -5.4349476822       24.4428204527  TIP3      840             0.0000000000
     24841      1033  TIP3      OH2           -21.7098459105       -3.8199103806       31.1023400473  TIP3      841             0.0000000000
     24842      1033  TIP3      H1            -22.6482036692       -3.5371673973       31.0412748496  TIP3      841             0.0000000000
     24843      1033  TIP3      H2            -21.3246315471       -3.0634853948       30.6356746248  TIP3      841             0.0000000000
     24844      1034  TIP3      OH2           -22.2555151582      -14.8886710642       32.7248291725  TIP3      842             0.0000000000
     24845      1034  TIP3      H1            -22.1620137923      -14.2109245603       32.0516037361  TIP3      842             0.0000000000
     24846      1034  TIP3      H2            -21.4541260851      -15.4470615356       32.5945817295  TIP3      842             0.0000000000
     24847      1035  TIP3      OH2           -28.6977062953      -17.0307351414       29.4874756157  TIP3      843             0.0000000000
     24848      1035  TIP3      H1            -29.0736015384      -17.9212297312       29.5039597992  TIP3      843             0.0000000000
     24849      1035  TIP3      H2            -29.4791296141      -16.5646316915       29.8750083953  TIP3      843             0.0000000000
     24850      1036  TIP3      OH2           -23.1149792404       -1.9505584680       27.3125773669  TIP3      844             0.0000000000
     24851      1036  TIP3      H1            -22.8709901355       -2.8385666507       27.0322593696  TIP3      844             0.0000000000
     24852      1036  TIP3      H2            -22.4022322136       -1.3710989410       26.9665545159  TIP3      844             0.0000000000
     24853      1037  TIP3      OH2           -20.8310201715       -5.3827455051       34.6250504389  TIP3      845             0.0000000000
     24854      1037  TIP3      H1            -20.7706834289       -6.1157789156       33.9729384165  TIP3      845             0.0000000000
     24855      1037  TIP3      H2            -20.5771224824       -4.6301839119       34.0504653643  TIP3      845             0.0000000000
     24856      1038  TIP3      OH2           -18.6092980272       -8.9104604364       32.5580236710  TIP3      846             0.0000000000
     24857      1038  TIP3      H1            -19.3471129856       -8.2761173587       32.4972195118  TIP3      846             0.0000000000
     24858      1038  TIP3      H2            -18.0305213360       -8.5558039620       31.8526074288  TIP3      846             0.0000000000
     24859      1039  TIP3      OH2           -22.7509972934       -9.4790662483       34.3303851343  TIP3      847             0.0000000000
     24860      1039  TIP3      H1            -22.5201027379       -8.5324675581       34.3015619461  TIP3      847             0.0000000000
     24861      1039  TIP3      H2            -23.5784335218       -9.5179680331       33.8188786226  TIP3      847             0.0000000000
     24862      1040  TIP3      OH2           -31.1440637948       -7.7714634315       27.2263447564  TIP3      848             0.0000000000
     24863      1040  TIP3      H1            -31.5581124752       -8.1674794348       26.4243895352  TIP3      848             0.0000000000
     24864      1040  TIP3      H2            -30.4579097853       -8.4379380211       27.4632812005  TIP3      848             0.0000000000
     24865      1041  TIP3      OH2           -29.7907761616       -4.4316519584       29.7946826218  TIP3      849             0.0000000000
     24866      1041  TIP3      H1            -29.7009980359       -4.4058447497       28.8245616380  TIP3      849             0.0000000000
     24867      1041  TIP3      H2            -29.0020007353       -4.9127734284       30.1174411725  TIP3      849             0.0000000000
     24868      1042  TIP3      OH2           -30.7124855857       -9.1135475242       30.7169921767  TIP3      850             0.0000000000
     24869      1042  TIP3      H1            -30.4549404790       -9.0817628835       29.7718647858  TIP3      850             0.0000000000
     24870      1042  TIP3      H2            -30.2895348289       -8.3044454657       31.0784057292  TIP3      850             0.0000000000
     24871      1043  TIP3      OH2           -24.2144448829       -3.0169007639       31.5595399310  TIP3      851             0.0000000000
     24872      1043  TIP3      H1            -24.7000441149       -2.5956179923       32.2909298859  TIP3      851             0.0000000000
     24873      1043  TIP3      H2            -24.4277491653       -3.9538503867       31.6690938591  TIP3      851             0.0000000000
     24874      1044  TIP3      OH2           -29.9310715335       -4.7881236959       35.3064461971  TIP3      852             0.0000000000
     24875      1044  TIP3      H1            -30.5874162756       -4.1786588885       35.7209931496  TIP3      852             0.0000000000
     24876      1044  TIP3      H2            -30.3470316717       -4.9270298568       34.4175288528  TIP3      852             0.0000000000
     24877      1045  TIP3      OH2           -32.7495996350       -8.3486699376       34.5492970878  TIP3      853             0.0000000000
     24878      1045  TIP3      H1            -32.8685764255       -7.4967853015       35.0014683826  TIP3      853             0.0000000000
     24879      1045  TIP3      H2            -33.6133833550       -8.7417137700       34.7737390325  TIP3      853             0.0000000000
     24880      1046  TIP3      OH2           -25.8898326756       -2.3576131555       26.5216302557  TIP3      854             0.0000000000
     24881      1046  TIP3      H1            -25.6969344721       -1.6259240842       27.1453420075  TIP3      854             0.0000000000
     24882      1046  TIP3      H2            -26.5562092838       -1.9419531239       25.9617717678  TIP3      854             0.0000000000
     24883      1047  TIP3      OH2           -31.4077478852       -2.7898856869       36.3670554057  TIP3      855             0.0000000000
     24884      1047  TIP3      H1            -31.6608366220       -2.3390721041       35.5287380110  TIP3      855             0.0000000000
     24885      1047  TIP3      H2            -32.2982555299       -3.0418021049       36.6758581221  TIP3      855             0.0000000000
     24886      1048  TIP3      OH2           -20.5556015763      -17.5523057089       22.9461409872  TIP3      856             0.0000000000
     24887      1048  TIP3      H1            -21.5112665719      -17.4766347359       23.1408656709  TIP3      856             0.0000000000
     24888      1048  TIP3      H2            -20.2248287922      -16.8902418147       23.5858183006  TIP3      856             0.0000000000
     24889      1049  TIP3      OH2           -32.3007667472       -8.6528441844       24.9502234596  TIP3      857             0.0000000000
     24890      1049  TIP3      H1            -32.4586077564       -7.9670457843       24.2877650302  TIP3      857             0.0000000000
     24891      1049  TIP3      H2            -32.7135825108       -9.4171290154       24.5326819024  TIP3      857             0.0000000000
     24892      1050  TIP3      OH2           -35.4348358737       -6.3226781616       33.7098746994  TIP3      858             0.0000000000
     24893      1050  TIP3      H1            -36.3174311541       -6.2702356788       33.3060905691  TIP3      858             0.0000000000
     24894      1050  TIP3      H2            -35.2987328343       -7.2866272687       33.6875524977  TIP3      858             0.0000000000
     24895      1051  TIP3      OH2           -35.6274769081       -3.0292137074       29.7071256033  TIP3      859             0.0000000000
     24896      1051  TIP3      H1            -34.7726706954       -3.4941866151       29.6554597288  TIP3      859             0.0000000000
     24897      1051  TIP3      H2            -35.8654269048       -3.1653463988       30.6331130945  TIP3      859             0.0000000000
     24898      1052  TIP3      OH2           -18.2458105552       -2.7532275658       36.3065618870  TIP3      860             0.0000000000
     24899      1052  TIP3      H1            -18.4313169370       -3.7004746180       36.1698579524  TIP3      860             0.0000000000
     24900      1052  TIP3      H2            -19.0937425094       -2.4726450635       36.7311309791  TIP3      860             0.0000000000
     24901      1053  TIP3      OH2           -27.5271001288       -3.3796323357       35.2577628118  TIP3      861             0.0000000000
     24902      1053  TIP3      H1            -27.3117589277       -2.8300184833       36.0389260440  TIP3      861             0.0000000000
     24903      1053  TIP3      H2            -28.4516156452       -3.6662502978       35.4096879880  TIP3      861             0.0000000000
     24904      1054  TIP3      OH2           -26.9025296940        0.1175534583       24.5309076380  TIP3      862             0.0000000000
     24905      1054  TIP3      H1            -26.8330542021        0.6125369068       23.6719400609  TIP3      862             0.0000000000
     24906      1054  TIP3      H2            -26.9982898001        0.8937492120       25.1092274084  TIP3      862             0.0000000000
     24907      1055  TIP3      OH2           -33.0914973340       -0.4210333833       26.9732910857  TIP3      863             0.0000000000
     24908      1055  TIP3      H1            -32.6248457844       -0.8045119018       27.7473731000  TIP3      863             0.0000000000
     24909      1055  TIP3      H2            -33.9969859155       -0.7393673050       27.1629846442  TIP3      863             0.0000000000
     24910      1056  TIP3      OH2           -23.6138929370       -0.3251640417       21.3593474067  TIP3      864             0.0000000000
     24911      1056  TIP3      H1            -23.2495513162       -1.2186386266       21.2679547810  TIP3      864             0.0000000000
     24912      1056  TIP3      H2            -24.0159005093       -0.3351596754       22.2322802340  TIP3      864             0.0000000000
     24913      1057  TIP3      OH2           -24.2987073501       -0.3614054462       24.7599321466  TIP3      865             0.0000000000
     24914      1057  TIP3      H1            -25.2800797814       -0.3399305709       24.6770272339  TIP3      865             0.0000000000
     24915      1057  TIP3      H2            -24.1506297771       -1.2739461530       25.0421432797  TIP3      865             0.0000000000
     24916      1058  TIP3      OH2           -21.0627239196      -11.5432202565       36.4418275022  TIP3      866             0.0000000000
     24917      1058  TIP3      H1            -21.1783047082      -11.2432617205       35.5126802282  TIP3      866             0.0000000000
     24918      1058  TIP3      H2            -21.0596981025      -12.5209844444       36.3057137646  TIP3      866             0.0000000000
     24919      1059  TIP3      OH2           -33.6831008688       -4.3934365768       34.6982477759  TIP3      867             0.0000000000
     24920      1059  TIP3      H1            -33.4423966435       -4.8412243527       35.5383937733  TIP3      867             0.0000000000
     24921      1059  TIP3      H2            -34.4293926028       -4.9913188222       34.4433990140  TIP3      867             0.0000000000
     24922      1060  TIP3      OH2           -30.9655044685      -16.1918566293       30.4847988017  TIP3      868             0.0000000000
     24923      1060  TIP3      H1            -31.7899322891      -16.3680809370       29.9721889994  TIP3      868             0.0000000000
     24924      1060  TIP3      H2            -31.2840443907      -15.4308252812       31.0050135024  TIP3      868             0.0000000000
     24925      1061  TIP3      OH2           -26.4174523864      -16.8443936397       33.7831765704  TIP3      869             0.0000000000
     24926      1061  TIP3      H1            -26.0714974250      -17.4275517228       34.5032206144  TIP3      869             0.0000000000
     24927      1061  TIP3      H2            -27.3837213249      -16.8509671397       33.9620405099  TIP3      869             0.0000000000
     24928      1062  TIP3      OH2           -23.7090298854      -12.4387617729       34.6375121831  TIP3      870             0.0000000000
     24929      1062  TIP3      H1            -24.3249146938      -13.0430523244       35.1247834443  TIP3      870             0.0000000000
     24930      1062  TIP3      H2            -24.1731281491      -12.3784635406       33.7869070248  TIP3      870             0.0000000000
     24931      1063  TIP3      OH2           -30.9977013403      -11.6754032349       31.6938007727  TIP3      871             0.0000000000
     24932      1063  TIP3      H1            -31.5899814417      -11.6098188868       32.4738114334  TIP3      871             0.0000000000
     24933      1063  TIP3      H2            -30.9685976138      -10.7435062861       31.3780420691  TIP3      871             0.0000000000
     24934      1064  TIP3      OH2           -31.1032072712      -11.3332878111       26.9591236008  TIP3      872             0.0000000000
     24935      1064  TIP3      H1            -32.0648357063      -11.1658831797       26.8345833067  TIP3      872             0.0000000000
     24936      1064  TIP3      H2            -30.9095778079      -11.6523249234       26.0456023843  TIP3      872             0.0000000000
     24937      1065  TIP3      OH2           -25.9019650924      -10.4194031708       25.4468674431  TIP3      873             0.0000000000
     24938      1065  TIP3      H1            -25.6710464139       -9.5165432600       25.7513203497  TIP3      873             0.0000000000
     24939      1065  TIP3      H2            -25.0983551555      -10.6692479773       24.9515511441  TIP3      873             0.0000000000
     24940      1066  TIP3      OH2           -26.3838780405      -10.5094584482       36.9156147575  TIP3      874             0.0000000000
     24941      1066  TIP3      H1            -26.8732029017      -11.3435348010       37.1124990742  TIP3      874             0.0000000000
     24942      1066  TIP3      H2            -26.3166798326      -10.1555237019       37.8179765845  TIP3      874             0.0000000000
     24943      1067  TIP3      OH2           -24.7615241128      -11.2309909116       28.6695236658  TIP3      875             0.0000000000
     24944      1067  TIP3      H1            -24.6762069734      -10.3995252093       28.1755387064  TIP3      875             0.0000000000
     24945      1067  TIP3      H2            -24.9217546384      -11.8727874545       27.9628897330  TIP3      875             0.0000000000
     24946      1068  TIP3      OH2           -33.4247532320      -11.6319460318       33.2832163911  TIP3      876             0.0000000000
     24947      1068  TIP3      H1            -33.5486127733      -11.2162311200       34.1451277659  TIP3      876             0.0000000000
     24948      1068  TIP3      H2            -33.8292936676      -12.5159550054       33.4040156406  TIP3      876             0.0000000000
     24949      1069  TIP3      OH2           -35.6591951026      -14.2983889393       27.2793793381  TIP3      877             0.0000000000
     24950      1069  TIP3      H1            -35.7300503887      -14.4780785648       28.2296369731  TIP3      877             0.0000000000
     24951      1069  TIP3      H2            -35.7105106512      -15.2105977970       26.9419016139  TIP3      877             0.0000000000
     24952      1070  TIP3      OH2           -25.3909501952       -9.9282947569       32.9245083947  TIP3      878             0.0000000000
     24953      1070  TIP3      H1            -24.8399865530      -10.5151745732       32.3633618699  TIP3      878             0.0000000000
     24954      1070  TIP3      H2            -25.9301055398      -10.5924042643       33.4248010714  TIP3      878             0.0000000000
     24955      1071  TIP3      OH2           -28.0810658941      -13.5968368020       27.8096190525  TIP3      879             0.0000000000
     24956      1071  TIP3      H1            -28.9049437653      -13.9509071102       28.1697487609  TIP3      879             0.0000000000
     24957      1071  TIP3      H2            -27.4057646764      -14.2247960524       28.1746948162  TIP3      879             0.0000000000
     24958      1072  TIP3      OH2           -33.7051066346      -11.6762963882       26.3056973651  TIP3      880             0.0000000000
     24959      1072  TIP3      H1            -34.5995454866      -11.4602495435       25.9512461226  TIP3      880             0.0000000000
     24960      1072  TIP3      H2            -33.5265397753      -12.4548947763       25.7584408929  TIP3      880             0.0000000000
     24961      1073  TIP3      OH2           -30.6612335699      -12.2284465568       24.5166210201  TIP3      881             0.0000000000
     24962      1073  TIP3      H1            -29.6967482419      -12.2235514712       24.3945113086  TIP3      881             0.0000000000
     24963      1073  TIP3      H2            -30.9350257519      -11.7717138101       23.6848902450  TIP3      881             0.0000000000
     24964      1074  TIP3      OH2           -24.4351085518      -14.2780318191       30.7683213420  TIP3      882             0.0000000000
     24965      1074  TIP3      H1            -24.8649528007      -15.0117039664       31.2368811213  TIP3      882             0.0000000000
     24966      1074  TIP3      H2            -24.2924657368      -14.6191779535       29.8676872878  TIP3      882             0.0000000000
     24967      1075  TIP3      OH2           -31.1801868030      -11.2635892035       22.0968821133  TIP3      883             0.0000000000
     24968      1075  TIP3      H1            -31.9106179181      -11.5237716973       21.5193358570  TIP3      883             0.0000000000
     24969      1075  TIP3      H2            -30.8306092163      -10.4921185890       21.6000238435  TIP3      883             0.0000000000
     24970      1076  TIP3      OH2           -21.1921917215        0.9751910574       37.5887115849  TIP3      884             0.0000000000
     24971      1076  TIP3      H1            -20.8540539602        1.3489430072       36.7542975742  TIP3      884             0.0000000000
     24972      1076  TIP3      H2            -20.4012176006        1.0543075453       38.1471349994  TIP3      884             0.0000000000
     24973      1077  TIP3      OH2           -33.1656126756       -6.2414441991       36.6311279744  TIP3      885             0.0000000000
     24974      1077  TIP3      H1            -32.4550875403       -6.3498249009       37.2896497306  TIP3      885             0.0000000000
     24975      1077  TIP3      H2            -33.9128508083       -6.1791048460       37.2662439626  TIP3      885             0.0000000000
     24976      1078  TIP3      OH2           -27.6958718106      -10.7934567622       29.5498653011  TIP3      886             0.0000000000
     24977      1078  TIP3      H1            -26.8719201346      -11.2280841775       29.2884464643  TIP3      886             0.0000000000
     24978      1078  TIP3      H2            -28.2243295229      -11.5167424304       29.9366086894  TIP3      886             0.0000000000
     24979      1079  TIP3      OH2           -31.7429995164      -15.3127866425       25.9986703582  TIP3      887             0.0000000000
     24980      1079  TIP3      H1            -32.5146326761      -15.8902935242       26.1093283653  TIP3      887             0.0000000000
     24981      1079  TIP3      H2            -31.6860129944      -15.2633290233       25.0188863314  TIP3      887             0.0000000000
     24982      1080  TIP3      OH2           -28.6266120911      -12.8941247703       31.9652391572  TIP3      888             0.0000000000
     24983      1080  TIP3      H1            -29.4213610199      -12.3516699614       31.7856760740  TIP3      888             0.0000000000
     24984      1080  TIP3      H2            -28.0907712361      -12.2865195588       32.4939907985  TIP3      888             0.0000000000
     24985      1081  TIP3      OH2           -28.1048825547       -6.7792413974       24.0470291367  TIP3      889             0.0000000000
     24986      1081  TIP3      H1            -28.9259606183       -7.2144878404       23.7985082337  TIP3      889             0.0000000000
     24987      1081  TIP3      H2            -28.3636567105       -6.1662553122       24.7748017205  TIP3      889             0.0000000000
     24988      1082  TIP3      OH2           -20.6478241675       -7.0137957089       32.5268469184  TIP3      890             0.0000000000
     24989      1082  TIP3      H1            -20.1967291999       -6.5318962341       31.7843484004  TIP3      890             0.0000000000
     24990      1082  TIP3      H2            -21.5377354925       -7.1474759483       32.1411755394  TIP3      890             0.0000000000
     24991      1083  TIP3      OH2           -24.1764839985      -13.6464598635       22.9443960284  TIP3      891             0.0000000000
     24992      1083  TIP3      H1            -24.9532507786      -13.9129386885       22.4170120469  TIP3      891             0.0000000000
     24993      1083  TIP3      H2            -23.6383362680      -13.2425313097       22.2520264654  TIP3      891             0.0000000000
     24994      1084  TIP3      OH2           -26.5479587233       -6.2191279146       35.1134224391  TIP3      892             0.0000000000
     24995      1084  TIP3      H1            -27.2936983063       -6.5175108266       35.6609104648  TIP3      892             0.0000000000
     24996      1084  TIP3      H2            -26.5820605473       -5.2683977450       35.2739775284  TIP3      892             0.0000000000
     24997      1085  TIP3      OH2           -23.9344776647      -11.0837211257       23.7559434666  TIP3      893             0.0000000000
     24998      1085  TIP3      H1            -23.9350022499      -12.0497531698       23.5910542035  TIP3      893             0.0000000000
     24999      1085  TIP3      H2            -22.9749194267      -10.9069268322       23.8155420546  TIP3      893             0.0000000000
     25000      1086  TIP3      OH2           -32.3454606338       -6.9001468567       29.7672627618  TIP3      894             0.0000000000
     25001      1086  TIP3      H1            -31.9801205809       -7.2145990407       28.9259937297  TIP3      894             0.0000000000
     25002      1086  TIP3      H2            -32.7432969291       -7.7171849874       30.1198749257  TIP3      894             0.0000000000
     25003      1087  TIP3      OH2           -35.4749843382       -9.0812526371       34.2780005418  TIP3      895             0.0000000000
     25004      1087  TIP3      H1            -36.0103340000       -9.3293783779       35.0592461578  TIP3      895             0.0000000000
     25005      1087  TIP3      H2            -36.0033365508       -9.4248433703       33.5322109221  TIP3      895             0.0000000000
     25006      1088  TIP3      OH2           -28.7962300341       -9.1302869679       36.3966117229  TIP3      896             0.0000000000
     25007      1088  TIP3      H1            -29.4271388427       -9.7245482150       35.9540142377  TIP3      896             0.0000000000
     25008      1088  TIP3      H2            -27.9388336294       -9.5780618558       36.2587678114  TIP3      896             0.0000000000
     25009      1089  TIP3      OH2           -24.0489534023       -3.6859615276       35.1659375671  TIP3      897             0.0000000000
     25010      1089  TIP3      H1            -24.7426946626       -3.5340172167       34.5159507880  TIP3      897             0.0000000000
     25011      1089  TIP3      H2            -24.4203537108       -3.2416139158       35.9550456260  TIP3      897             0.0000000000
     25012      1090  TIP3      OH2           -18.3941671603       -5.5212793905       35.9282699451  TIP3      898             0.0000000000
     25013      1090  TIP3      H1            -19.3515912315       -5.5361270815       35.6906893236  TIP3      898             0.0000000000
     25014      1090  TIP3      H2            -17.9740450769       -5.6140017467       35.0456952268  TIP3      898             0.0000000000
     25015      1091  TIP3      OH2           -20.5481054664       -2.4498828419       23.5453098739  TIP3      899             0.0000000000
     25016      1091  TIP3      H1            -21.0653167064       -3.1804931235       23.9059616114  TIP3      899             0.0000000000
     25017      1091  TIP3      H2            -20.2532286822       -2.8406955489       22.7162294814  TIP3      899             0.0000000000
     25018      1092  TIP3      OH2           -22.9954556813       -8.0191317972       31.2095415250  TIP3      900             0.0000000000
     25019      1092  TIP3      H1            -23.9280331698       -8.2277629525       31.0763334977  TIP3      900             0.0000000000
     25020      1092  TIP3      H2            -22.5711753765       -8.6817178458       30.6212893333  TIP3      900             0.0000000000
     25021      1093  TIP3      OH2           -30.5676032916       -3.8036977495       27.1939267977  TIP3      901             0.0000000000
     25022      1093  TIP3      H1            -30.1375842008       -3.0373524373       26.7586022058  TIP3      901             0.0000000000
     25023      1093  TIP3      H2            -31.4396920244       -3.7903190291       26.7711281763  TIP3      901             0.0000000000
     25024      1094  TIP3      OH2           -28.8526451880       -5.6268278785       26.3834735511  TIP3      902             0.0000000000
     25025      1094  TIP3      H1            -29.5209239895       -5.0044207906       26.7508485337  TIP3      902             0.0000000000
     25026      1094  TIP3      H2            -29.1738642111       -6.4753283784       26.7179661032  TIP3      902             0.0000000000
     25027      1095  TIP3      OH2           -28.5278907866       -1.7394313196       33.1934910520  TIP3      903             0.0000000000
     25028      1095  TIP3      H1            -27.7945900367       -1.1354379017       32.9730499501  TIP3      903             0.0000000000
     25029      1095  TIP3      H2            -28.1604668813       -2.2153708161       33.9674904555  TIP3      903             0.0000000000
     25030      1096  TIP3      OH2           -30.4276887214       -1.3458772984       25.8674617002  TIP3      904             0.0000000000
     25031      1096  TIP3      H1            -31.2956804342       -0.9572278812       26.0361448907  TIP3      904             0.0000000000
     25032      1096  TIP3      H2            -29.8492604602       -0.5679719065       25.9194872294  TIP3      904             0.0000000000
     25033      1097  TIP3      OH2           -25.5549703594       -5.8456481985       32.5684186725  TIP3      905             0.0000000000
     25034      1097  TIP3      H1            -25.9146414257       -6.0530638432       33.4635710690  TIP3      905             0.0000000000
     25035      1097  TIP3      H2            -24.8419346666       -6.5041353230       32.5303426257  TIP3      905             0.0000000000
     25036      1098  TIP3      OH2           -22.2917424762       -1.0537665340       34.9470559352  TIP3      906             0.0000000000
     25037      1098  TIP3      H1            -23.1766577603       -1.4310999383       34.7776424885  TIP3      906             0.0000000000
     25038      1098  TIP3      H2            -22.1672405162       -0.4611137236       34.1661006970  TIP3      906             0.0000000000
     25039      1099  TIP3      OH2           -34.1894208562      -14.1556089246       34.1140638891  TIP3      907             0.0000000000
     25040      1099  TIP3      H1            -34.3558485523      -13.8778756102       35.0327576853  TIP3      907             0.0000000000
     25041      1099  TIP3      H2            -34.3286213085      -15.1086343761       34.2279402295  TIP3      907             0.0000000000
     25042      1100  TIP3      OH2           -34.4859684704       -2.1443056833       32.4544047363  TIP3      908             0.0000000000
     25043      1100  TIP3      H1            -34.0139707338       -2.9543652506       32.7450623285  TIP3      908             0.0000000000
     25044      1100  TIP3      H2            -35.2770817260       -2.1530824781       33.0121505531  TIP3      908             0.0000000000
     25045      1101  TIP3      OH2           -25.2658979768      -14.4575968701       33.7060127843  TIP3      909             0.0000000000
     25046      1101  TIP3      H1            -24.4165448318      -14.6443860456       33.2537297706  TIP3      909             0.0000000000
     25047      1101  TIP3      H2            -25.6974249304      -15.3389950207       33.7388871418  TIP3      909             0.0000000000
     25048      1102  TIP3      OH2           -24.8923560271      -15.3922147878       24.8544027500  TIP3      910             0.0000000000
     25049      1102  TIP3      H1            -24.5799264015      -14.7587903919       24.1722962378  TIP3      910             0.0000000000
     25050      1102  TIP3      H2            -24.4750140507      -14.9445777475       25.6250925171  TIP3      910             0.0000000000
     25051      1103  TIP3      OH2           -27.5366688425       -1.9064366718       22.3643454974  TIP3      911             0.0000000000
     25052      1103  TIP3      H1            -27.1614990750       -1.4391930484       23.1250206783  TIP3      911             0.0000000000
     25053      1103  TIP3      H2            -26.9720963537       -2.6977379173       22.2552048352  TIP3      911             0.0000000000
     25054      1104  TIP3      OH2           -27.8456198655      -12.6618144595       24.7082392329  TIP3      912             0.0000000000
     25055      1104  TIP3      H1            -27.3061667750      -11.9238082194       25.0337121914  TIP3      912             0.0000000000
     25056      1104  TIP3      H2            -28.0304831573      -13.1418937157       25.5299669101  TIP3      912             0.0000000000
     25057      1105  TIP3      OH2           -26.6967192876      -11.7676494887       34.3008888601  TIP3      913             0.0000000000
     25058      1105  TIP3      H1            -26.8041521126      -11.5210905559       35.2369791694  TIP3      913             0.0000000000
     25059      1105  TIP3      H2            -26.4793137736      -12.7189964004       34.3311734453  TIP3      913             0.0000000000
     25060      1106  TIP3      OH2           -27.3064968861      -15.8198881760       25.7563803230  TIP3      914             0.0000000000
     25061      1106  TIP3      H1            -27.1525987204      -15.5653399259       26.6811277450  TIP3      914             0.0000000000
     25062      1106  TIP3      H2            -26.4179813616      -15.5874778842       25.3974553052  TIP3      914             0.0000000000
     25063      1107  TIP3      OH2           -31.3924682381      -14.8079109902       23.3705308270  TIP3      915             0.0000000000
     25064      1107  TIP3      H1            -31.3677253200      -13.8528648436       23.5844006934  TIP3      915             0.0000000000
     25065      1107  TIP3      H2            -30.4350487912      -15.0069648601       23.3013356701  TIP3      915             0.0000000000
     25066      1108  TIP3      OH2           -21.1210904639      -13.9471360284       35.2528952991  TIP3      916             0.0000000000
     25067      1108  TIP3      H1            -21.9895966891      -13.9594044887       34.8097112675  TIP3      916             0.0000000000
     25068      1108  TIP3      H2            -20.5339319958      -14.0880652440       34.4871737690  TIP3      916             0.0000000000
     25069      1109  TIP3      OH2           -22.1051370526       -9.9004417663       29.3860946755  TIP3      917             0.0000000000
     25070      1109  TIP3      H1            -22.7588488181      -10.5999413292       29.2976704408  TIP3      917             0.0000000000
     25071      1109  TIP3      H2            -21.3228704091      -10.4166682436       29.6787809474  TIP3      917             0.0000000000
     25072      1110  TIP3      OH2           -21.3571156205       -1.0323484061       30.5165222277  TIP3      918             0.0000000000
     25073      1110  TIP3      H1            -21.4417177060       -0.2231430243       29.9715185588  TIP3      918             0.0000000000
     25074      1110  TIP3      H2            -20.3835064276       -1.0566022218       30.5657597021  TIP3      918             0.0000000000
     25075      1111  TIP3      OH2           -33.3725682236      -16.7225147099       29.5941379949  TIP3      919             0.0000000000
     25076      1111  TIP3      H1            -33.4497309163      -16.9863357558       28.6498443125  TIP3      919             0.0000000000
     25077      1111  TIP3      H2            -33.7453602151      -17.5195640532       30.0392955920  TIP3      919             0.0000000000
     25078      1112  TIP3      OH2           -34.6638315168       -2.9586394477       26.5623112540  TIP3      920             0.0000000000
     25079      1112  TIP3      H1            -35.3603457254       -2.4960641904       27.0654213030  TIP3      920             0.0000000000
     25080      1112  TIP3      H2            -34.6849390619       -2.5581028659       25.6878612097  TIP3      920             0.0000000000
     25081      1113  TIP3      OH2           -35.0402518761       -0.6879218881       36.7820824526  TIP3      921             0.0000000000
     25082      1113  TIP3      H1            -34.6555205472       -0.5077080386       37.6615173547  TIP3      921             0.0000000000
     25083      1113  TIP3      H2            -35.7050775173       -1.3806850713       37.0063884722  TIP3      921             0.0000000000
     25084      1114  TIP3      OH2           -30.4233130375       -1.3572093921       38.7927539813  TIP3      922             0.0000000000
     25085      1114  TIP3      H1            -29.4665314109       -1.4377453147       38.6886378317  TIP3      922             0.0000000000
     25086      1114  TIP3      H2            -30.7495452864       -1.7974054615       37.9893719398  TIP3      922             0.0000000000
     25087      1115  TIP3      OH2           -24.6684291404       -2.6176570502       37.5376896064  TIP3      923             0.0000000000
     25088      1115  TIP3      H1            -24.8450494520       -3.5222810036       37.8922273611  TIP3      923             0.0000000000
     25089      1115  TIP3      H2            -23.7450573472       -2.5223449052       37.8648588314  TIP3      923             0.0000000000
     25090      1116  TIP3      OH2           -35.1826964409       -6.4767724410       38.3743100762  TIP3      924             0.0000000000
     25091      1116  TIP3      H1            -34.9631984024       -7.3705584760       38.6930677413  TIP3      924             0.0000000000
     25092      1116  TIP3      H2            -36.0843286508       -6.5826764916       38.0156706455  TIP3      924             0.0000000000
     25093      1117  TIP3      OH2           -28.9791887987       -6.5610428071       37.0317340946  TIP3      925             0.0000000000
     25094      1117  TIP3      H1            -29.3258489291       -5.9463948155       36.3385197372  TIP3      925             0.0000000000
     25095      1117  TIP3      H2            -28.9611543458       -7.4400870141       36.5756012274  TIP3      925             0.0000000000
     25096      1118  TIP3      OH2           -23.3419108427       -6.5535227061       35.1370989641  TIP3      926             0.0000000000
     25097      1118  TIP3      H1            -22.5508990931       -5.9628372542       35.1155214284  TIP3      926             0.0000000000
     25098      1118  TIP3      H2            -24.0488857592       -5.8874254901       35.2098863869  TIP3      926             0.0000000000
     25099      1119  TIP3      OH2           -34.6955476661       -9.3783863088       37.5025590252  TIP3      927             0.0000000000
     25100      1119  TIP3      H1            -34.1743554932      -10.2005751329       37.4648995148  TIP3      927             0.0000000000
     25101      1119  TIP3      H2            -34.9936670406       -9.4699293035       38.4315726161  TIP3      927             0.0000000000
     25102      1120  TIP3      OH2           -30.9389217309      -10.2610650087       34.4711850262  TIP3      928             0.0000000000
     25103      1120  TIP3      H1            -31.6963259820       -9.6467219869       34.5447261586  TIP3      928             0.0000000000
     25104      1120  TIP3      H2            -30.3426512862       -9.7198744005       33.9121622796  TIP3      928             0.0000000000
     25105      1121  TIP3      OH2           -25.3833439322       -7.6450670356       38.2799425096  TIP3      929             0.0000000000
     25106      1121  TIP3      H1            -24.5445415431       -8.0605527532       38.0251055740  TIP3      929             0.0000000000
     25107      1121  TIP3      H2            -25.7587294518       -8.2679590444       38.9270213214  TIP3      929             0.0000000000
     25108      1122  TIP3      OH2           -30.1387451698      -12.5926898181       35.3961008721  TIP3      930             0.0000000000
     25109      1122  TIP3      H1            -29.9789508465      -13.1531262081       34.6155751511  TIP3      930             0.0000000000
     25110      1122  TIP3      H2            -30.3688676179      -11.7193209056       34.9896140774  TIP3      930             0.0000000000
     25111      1123  TIP3      OH2           -29.8928904336      -14.7898965856       33.4294812749  TIP3      931             0.0000000000
     25112      1123  TIP3      H1            -29.5343985885      -14.2192013606       32.7188186496  TIP3      931             0.0000000000
     25113      1123  TIP3      H2            -30.8480884110      -14.7939974803       33.2128469446  TIP3      931             0.0000000000
     25114      1124  TIP3      OH2           -28.6493219031       -8.9174668245       33.3275716779  TIP3      932             0.0000000000
     25115      1124  TIP3      H1            -27.7974414776       -8.4774860483       33.2916101906  TIP3      932             0.0000000000
     25116      1124  TIP3      H2            -29.2202849684       -8.2230732801       32.9365465810  TIP3      932             0.0000000000
     25117      1125  TIP3      OH2           -24.1892330602      -11.4943987879       38.9920841462  TIP3      933             0.0000000000
     25118      1125  TIP3      H1            -24.4754492761      -12.4316664327       38.9870113783  TIP3      933             0.0000000000
     25119      1125  TIP3      H2            -23.6120205703      -11.4843497432       39.7717209859  TIP3      933             0.0000000000
     25120      1126  TIP3      OH2           -22.5497428153       -8.2243528687       37.1020457316  TIP3      934             0.0000000000
     25121      1126  TIP3      H1            -22.9359979851       -7.6525634240       36.4012380660  TIP3      934             0.0000000000
     25122      1126  TIP3      H2            -21.6485710463       -8.3377498389       36.7360284609  TIP3      934             0.0000000000
     25123      1127  TIP3      OH2           -31.6871870569      -11.9600419194       37.6411050794  TIP3      935             0.0000000000
     25124      1127  TIP3      H1            -32.5806423556      -12.3508544231       37.5458864521  TIP3      935             0.0000000000
     25125      1127  TIP3      H2            -31.2665206574      -12.2275560627       36.7961582628  TIP3      935             0.0000000000
     25126      1128  TIP3      OH2           -29.0832428211      -17.2579260003       33.9377321869  TIP3      936             0.0000000000
     25127      1128  TIP3      H1            -29.2598805245      -16.2974835889       33.8361033108  TIP3      936             0.0000000000
     25128      1128  TIP3      H2            -29.9031059865      -17.5876359065       33.5139977039  TIP3      936             0.0000000000
     25129      1129  TIP3      OH2           -28.1475820819      -12.4928278232       37.5830061318  TIP3      937             0.0000000000
     25130      1129  TIP3      H1            -28.4818481720      -12.8707446796       38.4175209241  TIP3      937             0.0000000000
     25131      1129  TIP3      H2            -28.7774287762      -12.9001196445       36.9560549247  TIP3      937             0.0000000000
     25132      1130  TIP3      OH2           -25.1687194657      -13.4809427296       36.7209540614  TIP3      938             0.0000000000
     25133      1130  TIP3      H1            -26.0996692885      -13.7289660060       36.7211609882  TIP3      938             0.0000000000
     25134      1130  TIP3      H2            -24.8317474614      -14.1547763211       37.3541174014  TIP3      938             0.0000000000
     25135      1131  TIP3      OH2           -24.4610125820      -15.4142771090       38.4579680420  TIP3      939             0.0000000000
     25136      1131  TIP3      H1            -24.0403355164      -16.3052580651       38.4821987763  TIP3      939             0.0000000000
     25137      1131  TIP3      H2            -24.0326963421      -14.9501269832       39.2059646878  TIP3      939             0.0000000000
     25138      1132  TIP3      OH2           -33.7220382186      -13.8395383075       37.4019910622  TIP3      940             0.0000000000
     25139      1132  TIP3      H1            -33.9841656154      -14.7165383280       37.0911584161  TIP3      940             0.0000000000
     25140      1132  TIP3      H2            -33.7973871716      -13.9476040014       38.3855441776  TIP3      940             0.0000000000
     25141      1133  TIP3      OH2           -29.2931064912      -17.8338526173       36.6367643892  TIP3      941             0.0000000000
     25142      1133  TIP3      H1            -28.5291766310      -18.4476449804       36.6971660517  TIP3      941             0.0000000000
     25143      1133  TIP3      H2            -29.3507753634      -17.8038481182       35.6607565579  TIP3      941             0.0000000000
     25144      1134  TIP3      OH2           -29.1206205039      -16.5079744384       39.1232750445  TIP3      942             0.0000000000
     25145      1134  TIP3      H1            -29.1249364701      -16.9404259313       38.2481680228  TIP3      942             0.0000000000
     25146      1134  TIP3      H2            -29.7729653438      -15.8051851464       38.9654745498  TIP3      942             0.0000000000
     25147      1135  TIP3      OH2           -36.1085436858        0.5738198345       25.8092657697  TIP3      943             0.0000000000
     25148      1135  TIP3      H1            -36.8103378574        1.2430273997       25.9400881335  TIP3      943             0.0000000000
     25149      1135  TIP3      H2            -36.0146441084        0.2110737011       26.7147051571  TIP3      943             0.0000000000
     25150      1136  TIP3      OH2           -35.6316694655       -0.8565837493       28.1088176406  TIP3      944             0.0000000000
     25151      1136  TIP3      H1            -35.8743159354       -1.7108515973       28.5454958437  TIP3      944             0.0000000000
     25152      1136  TIP3      H2            -35.1358715668       -0.4868442690       28.8618076661  TIP3      944             0.0000000000
     25153      1137  TIP3      OH2           -18.5814590755       -0.3986771642       30.8700253545  TIP3      945             0.0000000000
     25154      1137  TIP3      H1            -18.2547538581       -0.1468478193       31.7497125559  TIP3      945             0.0000000000
     25155      1137  TIP3      H2            -17.7974032857       -0.2917973283       30.3125002387  TIP3      945             0.0000000000
     25156      1138  TIP3      OH2           -18.8854957684       -0.8248815191       34.0504004043  TIP3      946             0.0000000000
     25157      1138  TIP3      H1            -19.2400904764       -1.6255470247       33.6014455077  TIP3      946             0.0000000000
     25158      1138  TIP3      H2            -18.6482519339       -1.1821432740       34.9204779076  TIP3      946             0.0000000000
     25159      1139  TIP3      OH2           -20.1063513507       -5.0515348296       38.9066089465  TIP3      947             0.0000000000
     25160      1139  TIP3      H1            -20.9527815787       -4.9647744323       39.4026710685  TIP3      947             0.0000000000
     25161      1139  TIP3      H2            -19.7451871382       -4.1417491611       39.0268700455  TIP3      947             0.0000000000
     25162      1140  TIP3      OH2           -18.9478324732       -5.8175587098       30.9037899719  TIP3      948             0.0000000000
     25163      1140  TIP3      H1            -18.3276531543       -6.4825744505       30.5443271559  TIP3      948             0.0000000000
     25164      1140  TIP3      H2            -18.5587700262       -4.9921207672       30.5597750853  TIP3      948             0.0000000000
     25165      1141  TIP3      OH2           -20.2875830779       -3.0658785941       33.2928120818  TIP3      949             0.0000000000
     25166      1141  TIP3      H1            -21.0161294936       -2.7193397216       33.8348062490  TIP3      949             0.0000000000
     25167      1141  TIP3      H2            -20.7690202489       -3.2951959618       32.4618448750  TIP3      949             0.0000000000
     25168      1142  TIP3      OH2           -36.0948562356       -7.6620682751       30.5068016963  TIP3      950             0.0000000000
     25169      1142  TIP3      H1            -35.7724525899       -7.9466805506       29.6153331052  TIP3      950             0.0000000000
     25170      1142  TIP3      H2            -35.2312782897       -7.6052314453       30.9645654012  TIP3      950             0.0000000000
     25171      1143  TIP3      OH2           -19.6948611950       -8.3240952641       36.3700083090  TIP3      951             0.0000000000
     25172      1143  TIP3      H1            -19.3064824148       -9.2174563559       36.5804828421  TIP3      951             0.0000000000
     25173      1143  TIP3      H2            -18.9500022458       -7.8631679459       35.9325181151  TIP3      951             0.0000000000
     25174      1144  TIP3      OH2           -18.6274067842      -10.6273586812       37.2528223875  TIP3      952             0.0000000000
     25175      1144  TIP3      H1            -19.4229169812      -11.1476717705       37.0186945492  TIP3      952             0.0000000000
     25176      1144  TIP3      H2            -17.9156429858      -11.2761714500       37.0289606702  TIP3      952             0.0000000000
     25177      1145  TIP3      OH2           -20.3034385756      -11.6491470900       30.4906490028  TIP3      953             0.0000000000
     25178      1145  TIP3      H1            -19.3226708352      -11.5409880121       30.5798668245  TIP3      953             0.0000000000
     25179      1145  TIP3      H2            -20.5256087986      -12.1874642761       31.2565808600  TIP3      953             0.0000000000
     25180      1146  TIP3      OH2           -20.3581450362      -11.0223628214       33.4577353991  TIP3      954             0.0000000000
     25181      1146  TIP3      H1            -21.2321072632      -10.6912558014       33.1838218307  TIP3      954             0.0000000000
     25182      1146  TIP3      H2            -19.7856926653      -10.2825173964       33.1580898661  TIP3      954             0.0000000000
     25183      1147  TIP3      OH2           -35.8717853793      -12.3678617151       37.1611451498  TIP3      955             0.0000000000
     25184      1147  TIP3      H1            -34.9778083919      -12.6919748317       37.4081173913  TIP3      955             0.0000000000
     25185      1147  TIP3      H2            -36.3794757135      -13.2047399951       37.1144886537  TIP3      955             0.0000000000
     25186      1148  TIP3      OH2           -18.1374334478      -16.8558129798       38.4476362479  TIP3      956             0.0000000000
     25187      1148  TIP3      H1            -17.7373842780      -17.6320775759       38.0037590040  TIP3      956             0.0000000000
     25188      1148  TIP3      H2            -18.0682068818      -16.1850881340       37.7316048002  TIP3      956             0.0000000000
     25189      1149  TIP3      OH2           -20.5417005149      -15.8695882545       25.0241306145  TIP3      957             0.0000000000
     25190      1149  TIP3      H1            -20.2678736268      -15.8753546729       25.9638810647  TIP3      957             0.0000000000
     25191      1149  TIP3      H2            -21.4434172631      -16.2298338635       25.0378978400  TIP3      957             0.0000000000
     25192      1150  TIP3      OH2           -35.1984669167      -14.5389669784       30.0511504097  TIP3      958             0.0000000000
     25193      1150  TIP3      H1            -34.6026984148      -15.3021252451       30.2063002633  TIP3      958             0.0000000000
     25194      1150  TIP3      H2            -34.5779571692      -13.7988821189       30.1524537519  TIP3      958             0.0000000000
     25195      1151  TIP3      OH2           -36.3004577381      -10.1955994877       31.5029349081  TIP3      959             0.0000000000
     25196      1151  TIP3      H1            -35.7182508098      -10.6786580765       30.8941824581  TIP3      959             0.0000000000
     25197      1151  TIP3      H2            -36.3385178059       -9.3383359656       31.0199823665  TIP3      959             0.0000000000
     25198      1152  TIP3      OH2           -18.7362559772      -14.7710415935       36.8278001926  TIP3      960             0.0000000000
     25199      1152  TIP3      H1            -19.3970947769      -14.5774698977       37.5202100445  TIP3      960             0.0000000000
     25200      1152  TIP3      H2            -19.3018464711      -15.2210065537       36.1679396086  TIP3      960             0.0000000000
     25201      1153  TIP3      OH2           -21.8214129583        0.2891156021       26.7280618408  TIP3      961             0.0000000000
     25202      1153  TIP3      H1            -21.1288783405        0.0184959989       26.0904409395  TIP3      961             0.0000000000
     25203      1153  TIP3      H2            -21.3371291637        0.6048780884       27.5127100984  TIP3      961             0.0000000000
     25204      1154  TIP3      OH2           -36.2177743696      -16.9226635072       32.8804803512  TIP3      962             0.0000000000
     25205      1154  TIP3      H1            -36.5470846056      -16.4851648779       33.6717988713  TIP3      962             0.0000000000
     25206      1154  TIP3      H2            -36.4682878304      -16.2887114638       32.1854558333  TIP3      962             0.0000000000
     25207      1155  TIP3      OH2           -33.9495727586       -3.2319044459       37.3708496481  TIP3      963             0.0000000000
     25208      1155  TIP3      H1            -34.3722310383       -2.7667891319       36.6320765938  TIP3      963             0.0000000000
     25209      1155  TIP3      H2            -34.6977838573       -3.6867677520       37.7793028224  TIP3      963             0.0000000000
     25210      1156  TIP3      OH2           -31.4022053218       -1.7190774844       33.7535661594  TIP3      964             0.0000000000
     25211      1156  TIP3      H1            -31.2625130496       -0.8149035388       33.3906174379  TIP3      964             0.0000000000
     25212      1156  TIP3      H2            -30.4892251402       -2.0489125121       33.7422029785  TIP3      964             0.0000000000
     25213      1157  TIP3      OH2           -27.1745022866       -0.8284326355       36.3006607656  TIP3      965             0.0000000000
     25214      1157  TIP3      H1            -27.0389857657       -1.0095319113       37.2488998236  TIP3      965             0.0000000000
     25215      1157  TIP3      H2            -26.3177883458       -0.4063419805       36.0791694473  TIP3      965             0.0000000000
     25216      1158  TIP3      OH2           -25.0819549328        0.9713428991       35.9517078625  TIP3      966             0.0000000000
     25217      1158  TIP3      H1            -24.2525172504        0.6040388321       35.6105617314  TIP3      966             0.0000000000
     25218      1158  TIP3      H2            -24.7683000427        1.5330015953       36.6855675050  TIP3      966             0.0000000000
     25219      1159  TIP3      OH2           -20.0365021960      -17.3163324440       35.1406728239  TIP3      967             0.0000000000
     25220      1159  TIP3      H1            -20.2740024820      -16.8106744778       34.3522868834  TIP3      967             0.0000000000
     25221      1159  TIP3      H2            -19.8865558574      -18.1797673062       34.6883049768  TIP3      967             0.0000000000
     25222      1160  TIP3      OH2           -33.6756538992        1.3371159435       33.3625475801  TIP3      968             0.0000000000
     25223      1160  TIP3      H1            -34.5948758817        1.4603066734       33.0283229056  TIP3      968             0.0000000000
     25224      1160  TIP3      H2            -33.8719415287        0.8638542909       34.1789016306  TIP3      968             0.0000000000
     25225      1161  TIP3      OH2           -31.1939127285        0.6963586941       32.5675250468  TIP3      969             0.0000000000
     25226      1161  TIP3      H1            -32.1417667694        0.8189658693       32.8135115227  TIP3      969             0.0000000000
     25227      1161  TIP3      H2            -31.1343299155        1.2808373651       31.7874345361  TIP3      969             0.0000000000
     25228      1162  TIP3      OH2           -26.9062498897        0.3835796207       31.8269515063  TIP3      970             0.0000000000
     25229      1162  TIP3      H1            -27.7096290685        0.7801913237       31.4615427836  TIP3      970             0.0000000000
     25230      1162  TIP3      H2            -26.6165598748        1.0991166820       32.4326856421  TIP3      970             0.0000000000
     25231      1163  TIP3      OH2           -24.7702817800       -1.0197705719       33.2035873092  TIP3      971             0.0000000000
     25232      1163  TIP3      H1            -25.3945828999       -0.5254270817       32.6278759017  TIP3      971             0.0000000000
     25233      1163  TIP3      H2            -23.9388735709       -0.6808817499       32.8146219380  TIP3      971             0.0000000000
     25234      1164  TIP3      OH2           -22.0917266270        0.4043701835       32.7336136312  TIP3      972             0.0000000000
     25235      1164  TIP3      H1            -21.9549835984        1.2836363195       32.3274876103  TIP3      972             0.0000000000
     25236      1164  TIP3      H2            -21.8106552581       -0.2008788249       32.0133185413  TIP3      972             0.0000000000
     25237      1165  TIP3      OH2           -34.0948331436       -0.2415187727       30.4893353039  TIP3      973             0.0000000000
     25238      1165  TIP3      H1            -34.3871672161       -0.8214195519       31.2226019941  TIP3      973             0.0000000000
     25239      1165  TIP3      H2            -33.2648366654       -0.7283755184       30.2651328200  TIP3      973             0.0000000000
     25240      1166  TIP3      OH2           -32.0325033250       -1.5028836995       29.3455205035  TIP3      974             0.0000000000
     25241      1166  TIP3      H1            -32.1674213219       -2.4559774074       29.5115534077  TIP3      974             0.0000000000
     25242      1166  TIP3      H2            -31.1139044764       -1.4274421575       29.7033209192  TIP3      974             0.0000000000
     25243      1167  TIP3      OH2           -29.8250124186       -1.4802793718       30.7403296185  TIP3      975             0.0000000000
     25244      1167  TIP3      H1            -29.2792934728       -2.2915682543       30.7284427784  TIP3      975             0.0000000000
     25245      1167  TIP3      H2            -29.7344446367       -1.2300625016       31.6820761470  TIP3      975             0.0000000000
     25246      1168  TIP3      OH2           -26.6136314185      -15.6400657759       28.5392763432  TIP3      976             0.0000000000
     25247      1168  TIP3      H1            -27.3430417951      -16.1499120564       28.9585044082  TIP3      976             0.0000000000
     25248      1168  TIP3      H2            -25.8273200366      -16.1889529414       28.7215153382  TIP3      976             0.0000000000
     25249      1169  TIP3      OH2           -21.1897359405      -17.8736879197       28.9122306312  TIP3      977             0.0000000000
     25250      1169  TIP3      H1            -20.5896863062      -17.1348405145       28.6363807141  TIP3      977             0.0000000000
     25251      1169  TIP3      H2            -21.9975644902      -17.4027703350       29.1726766396  TIP3      977             0.0000000000
     25252      1170  TIP3      OH2           -19.6027369068      -16.3203732029       27.5383800033  TIP3      978             0.0000000000
     25253      1170  TIP3      H1            -18.9644265126      -16.9775948043       27.1973098217  TIP3      978             0.0000000000
     25254      1170  TIP3      H2            -18.9871908485      -15.5984612406       27.8149116865  TIP3      978             0.0000000000
     25255      1171  TIP3      OH2           -33.6256173001      -17.1876399067       26.9763570059  TIP3      979             0.0000000000
     25256      1171  TIP3      H1            -34.3850078893      -16.9005642520       26.4407132740  TIP3      979             0.0000000000
     25257      1171  TIP3      H2            -33.3974014060      -18.0701872741       26.5984723668  TIP3      979             0.0000000000
     25258      1172  TIP3      OH2           -29.9434113004      -17.7641331937       26.7322191069  TIP3      980             0.0000000000
     25259      1172  TIP3      H1            -29.7264202102      -17.0905893577       26.0721485173  TIP3      980             0.0000000000
     25260      1172  TIP3      H2            -29.6153837406      -17.3388280265       27.5343184911  TIP3      980             0.0000000000
     25261      1173  TIP3      OH2           -24.2197560902      -16.9451509810       28.3320988619  TIP3      981             0.0000000000
     25262      1173  TIP3      H1            -23.7989060245      -16.9466378513       27.4634884411  TIP3      981             0.0000000000
     25263      1173  TIP3      H2            -24.4156343118      -17.9049118308       28.4668778287  TIP3      981             0.0000000000
     25264      1174  TIP3      OH2           -23.0219302419      -17.0244520182       23.8248523249  TIP3      982             0.0000000000
     25265      1174  TIP3      H1            -23.8246462393      -16.5759929732       24.1684027465  TIP3      982             0.0000000000
     25266      1174  TIP3      H2            -23.2152346377      -17.9709413987       24.0312654094  TIP3      982             0.0000000000
     25267      1175  TIP3      OH2           -34.0842722774       -1.0269889216       23.6829958875  TIP3      983             0.0000000000
     25268      1175  TIP3      H1            -33.7827838271       -0.4150642617       22.9949776640  TIP3      983             0.0000000000
     25269      1175  TIP3      H2            -34.0370684846       -0.4146699824       24.4304927155  TIP3      983             0.0000000000
     25270      1176  TIP3      OH2           -28.6862985132      -15.0866882568       23.4759059052  TIP3      984             0.0000000000
     25271      1176  TIP3      H1            -28.3560507258      -15.1931944986       24.3922103626  TIP3      984             0.0000000000
     25272      1176  TIP3      H2            -28.1183845486      -14.3624698191       23.1595012621  TIP3      984             0.0000000000
     25273      1177  TIP3      OH2           -19.8857560829       -0.1776815675       24.9455731772  TIP3      985             0.0000000000
     25274      1177  TIP3      H1            -20.0803674289       -0.9706842833       24.3869418095  TIP3      985             0.0000000000
     25275      1177  TIP3      H2            -19.8172484379        0.5286059298       24.2643886162  TIP3      985             0.0000000000
     25276      1178  TIP3      OH2           -34.4946548521      -16.5610822810       36.4717066069  TIP3      986             0.0000000000
     25277      1178  TIP3      H1            -34.7339285141      -17.5057181949       36.5056346293  TIP3      986             0.0000000000
     25278      1178  TIP3      H2            -33.5938955112      -16.5796831835       36.8606515121  TIP3      986             0.0000000000
     25279      1179  TIP3      OH2           -32.3084627225      -17.0177339628       38.2686904274  TIP3      987             0.0000000000
     25280      1179  TIP3      H1            -31.5883509536      -17.6166073889       37.9966428297  TIP3      987             0.0000000000
     25281      1179  TIP3      H2            -32.8770379013      -17.5946646766       38.8015588519  TIP3      987             0.0000000000
     25282      1180  TIP3      OH2           -23.5975161757      -17.8836178708       38.5864436759  TIP3      988             0.0000000000
     25283      1180  TIP3      H1            -23.4342986351      -18.2963483651       39.4656342345  TIP3      988             0.0000000000
     25284      1180  TIP3      H2            -22.7174855431      -17.9982211714       38.1842077735  TIP3      988             0.0000000000
     25285      1181  TIP3      OH2           -20.5375964598       -1.5468470808       36.9026779898  TIP3      989             0.0000000000
     25286      1181  TIP3      H1            -21.2588158635       -1.6848313525       36.2406017972  TIP3      989             0.0000000000
     25287      1181  TIP3      H2            -20.6955263475       -0.6121149906       37.1247912602  TIP3      989             0.0000000000
     25288      1182  TIP3      OH2            -5.7428989606       -7.5483247289       26.8518406559  TIP3      990             0.0000000000
     25289      1182  TIP3      H1             -5.7633014500       -6.6069637461       27.0989830709  TIP3      990             0.0000000000
     25290      1182  TIP3      H2             -6.5650644164       -7.6410896888       26.3533070038  TIP3      990             0.0000000000
     25291      1183  TIP3      OH2            -7.0767266997       -9.0007011661       30.2764476428  TIP3      991             0.0000000000
     25292      1183  TIP3      H1             -7.0209727065       -9.2920570518       31.2146819840  TIP3      991             0.0000000000
     25293      1183  TIP3      H2             -7.7076619063       -9.6353897295       29.8888966864  TIP3      991             0.0000000000
     25294      1184  TIP3      OH2           -15.0369457810       -8.9407161758       31.6304738739  TIP3      992             0.0000000000
     25295      1184  TIP3      H1            -15.1234430290       -9.7347981468       32.1858556412  TIP3      992             0.0000000000
     25296      1184  TIP3      H2            -14.1514352480       -8.6417196506       31.9069846731  TIP3      992             0.0000000000
     25297      1185  TIP3      OH2            -3.7608876039       -5.6368836915       28.5402602228  TIP3      993             0.0000000000
     25298      1185  TIP3      H1             -4.0634478019       -6.3366341203       29.1335254040  TIP3      993             0.0000000000
     25299      1185  TIP3      H2             -3.4110923377       -5.0050636683       29.1902912649  TIP3      993             0.0000000000
     25300      1186  TIP3      OH2           -14.0738928237       -4.2582594532       29.9790992956  TIP3      994             0.0000000000
     25301      1186  TIP3      H1            -14.3608557803       -5.1765000087       29.7693417651  TIP3      994             0.0000000000
     25302      1186  TIP3      H2            -13.1133807760       -4.4000201805       29.9249555900  TIP3      994             0.0000000000
     25303      1187  TIP3      OH2           -16.9451012105      -11.0971973583       25.5679964815  TIP3      995             0.0000000000
     25304      1187  TIP3      H1            -17.3270829678      -10.4002601729       26.1161340166  TIP3      995             0.0000000000
     25305      1187  TIP3      H2            -17.7022766177      -11.4986240678       25.1210963557  TIP3      995             0.0000000000
     25306      1188  TIP3      OH2           -16.4748483045       -8.5346070212       28.0104377506  TIP3      996             0.0000000000
     25307      1188  TIP3      H1            -16.0105432830       -9.3034070632       28.4055122834  TIP3      996             0.0000000000
     25308      1188  TIP3      H2            -15.7889658416       -7.8536629818       27.9321542779  TIP3      996             0.0000000000
     25309      1189  TIP3      OH2            -6.4343442762       -0.3632447475       28.7662295772  TIP3      997             0.0000000000
     25310      1189  TIP3      H1             -5.7608487385       -0.9003860036       28.2859956051  TIP3      997             0.0000000000
     25311      1189  TIP3      H2             -6.6287552959       -0.9765081951       29.4868724804  TIP3      997             0.0000000000
     25312      1190  TIP3      OH2            -8.8787420877       -6.4817641556       31.1674788630  TIP3      998             0.0000000000
     25313      1190  TIP3      H1             -8.5109658598       -6.9532751025       30.4017791466  TIP3      998             0.0000000000
     25314      1190  TIP3      H2             -8.0711005561       -6.1246665736       31.5925711322  TIP3      998             0.0000000000
     25315      1191  TIP3      OH2            -0.3133065655      -14.7265464345       30.9404114433  TIP3      999             0.0000000000
     25316      1191  TIP3      H1             -0.0367363520      -14.1170867423       31.6531390553  TIP3      999             0.0000000000
     25317      1191  TIP3      H2              0.4958919392      -14.7895250166       30.4132457343  TIP3      999             0.0000000000
     25318      1192  TIP3      OH2            -5.2337892363      -11.5539062813       31.3892912625  TIP3      1000            0.0000000000
     25319      1192  TIP3      H1             -4.9860986479      -12.4969434181       31.4564841697  TIP3      1000            0.0000000000
     25320      1192  TIP3      H2             -5.6776770640      -11.5332336493       30.5306850308  TIP3      1000            0.0000000000
     25321      1193  TIP3      OH2           -12.2648826390      -13.8769653970       27.9749236303  TIP3      1001            0.0000000000
     25322      1193  TIP3      H1            -12.2227638062      -12.9739717319       27.6148890444  TIP3      1001            0.0000000000
     25323      1193  TIP3      H2            -12.8902409689      -14.3051355983       27.3403288487  TIP3      1001            0.0000000000
     25324      1194  TIP3      OH2            -4.6562318805      -13.4482236925       26.8443090856  TIP3      1002            0.0000000000
     25325      1194  TIP3      H1             -4.1777734090      -13.7591631226       27.6508746890  TIP3      1002            0.0000000000
     25326      1194  TIP3      H2             -4.0614670178      -12.7510929634       26.5292946247  TIP3      1002            0.0000000000
     25327      1195  TIP3      OH2           -15.6152668068      -10.8303661366       29.1770564263  TIP3      1003            0.0000000000
     25328      1195  TIP3      H1            -15.0119832980      -11.3772591553       29.7130401955  TIP3      1003            0.0000000000
     25329      1195  TIP3      H2            -15.5824818079      -11.3067991044       28.3315072915  TIP3      1003            0.0000000000
     25330      1196  TIP3      OH2           -11.1197399036       -9.6383954205       28.5354934698  TIP3      1004            0.0000000000
     25331      1196  TIP3      H1            -10.3024099107      -10.0446251265       28.9019240927  TIP3      1004            0.0000000000
     25332      1196  TIP3      H2            -11.5074697472      -10.4206402625       28.0885402777  TIP3      1004            0.0000000000
     25333      1197  TIP3      OH2            -0.0757350275      -13.3189253388       33.5409044824  TIP3      1005            0.0000000000
     25334      1197  TIP3      H1             -0.4249717164      -12.4938256577       33.1335897773  TIP3      1005            0.0000000000
     25335      1197  TIP3      H2              0.1095102386      -13.0039215877       34.4432317298  TIP3      1005            0.0000000000
     25336      1198  TIP3      OH2           -13.4690656507      -14.6816557855       32.4203794738  TIP3      1006            0.0000000000
     25337      1198  TIP3      H1            -13.8894178578      -14.3057378354       31.6218877929  TIP3      1006            0.0000000000
     25338      1198  TIP3      H2            -14.0963530389      -14.4067913417       33.1298595582  TIP3      1006            0.0000000000
     25339      1199  TIP3      OH2            -6.4055137907       -5.0100308428       25.9606080651  TIP3      1007            0.0000000000
     25340      1199  TIP3      H1             -6.5371384656       -5.1260431726       24.9990581748  TIP3      1007            0.0000000000
     25341      1199  TIP3      H2             -6.8420226002       -4.1464579549       26.0981526869  TIP3      1007            0.0000000000
     25342      1200  TIP3      OH2           -11.2821393185       -7.0208549038       32.2145904139  TIP3      1008            0.0000000000
     25343      1200  TIP3      H1            -11.8465971758       -6.2676368610       32.4950691350  TIP3      1008            0.0000000000
     25344      1200  TIP3      H2            -10.5119964002       -6.5491710043       31.8153008709  TIP3      1008            0.0000000000
     25345      1201  TIP3      OH2            -2.9142289541      -13.5851827173       28.9680682391  TIP3      1009            0.0000000000
     25346      1201  TIP3      H1             -2.7556353115      -14.4037036284       29.4525766409  TIP3      1009            0.0000000000
     25347      1201  TIP3      H2             -2.5119218466      -12.9552708367       29.6076078311  TIP3      1009            0.0000000000
     25348      1202  TIP3      OH2           -13.9716731471      -12.8208891050       30.2108343191  TIP3      1010            0.0000000000
     25349      1202  TIP3      H1            -13.3239363290      -12.1992214784       30.6175072893  TIP3      1010            0.0000000000
     25350      1202  TIP3      H2            -13.4408803018      -13.2227675528       29.4975492259  TIP3      1010            0.0000000000
     25351      1203  TIP3      OH2           -12.5725086222       -4.8905628077       33.1287726152  TIP3      1011            0.0000000000
     25352      1203  TIP3      H1            -12.7406635194       -4.0576244576       32.6618119403  TIP3      1011            0.0000000000
     25353      1203  TIP3      H2            -13.4160893866       -4.9663642526       33.6403141987  TIP3      1011            0.0000000000
     25354      1204  TIP3      OH2           -16.6420247831       -5.0591333802       23.6172715208  TIP3      1012            0.0000000000
     25355      1204  TIP3      H1            -16.4489319277       -4.4125749668       22.8857537495  TIP3      1012            0.0000000000
     25356      1204  TIP3      H2            -17.4631043648       -4.6964285236       23.9666867192  TIP3      1012            0.0000000000
     25357      1205  TIP3      OH2            -3.0597620143       -3.7818202965       30.7844541347  TIP3      1013            0.0000000000
     25358      1205  TIP3      H1             -3.9875227032       -3.5201699568       30.9847189563  TIP3      1013            0.0000000000
     25359      1205  TIP3      H2             -2.7626800718       -2.9436413677       30.3914736884  TIP3      1013            0.0000000000
     25360      1206  TIP3      OH2            -3.1310591044      -15.5633509018       32.1218590190  TIP3      1014            0.0000000000
     25361      1206  TIP3      H1             -3.8819056703      -15.4720748479       31.4985502261  TIP3      1014            0.0000000000
     25362      1206  TIP3      H2             -2.4024826962      -15.1833769336       31.6078842810  TIP3      1014            0.0000000000
     25363      1207  TIP3      OH2            -9.9834229329      -17.2335714334       29.5978520342  TIP3      1015            0.0000000000
     25364      1207  TIP3      H1            -10.2957748589      -18.1451363147       29.6977298844  TIP3      1015            0.0000000000
     25365      1207  TIP3      H2            -10.7954607421      -16.7566148069       29.9181871177  TIP3      1015            0.0000000000
     25366      1208  TIP3      OH2            -4.5791956160       -1.8102328234       27.3988340384  TIP3      1016            0.0000000000
     25367      1208  TIP3      H1             -4.2491739606       -2.5900689418       26.9059319157  TIP3      1016            0.0000000000
     25368      1208  TIP3      H2             -3.8595405535       -1.1693215762       27.1825309307  TIP3      1016            0.0000000000
     25369      1209  TIP3      OH2            -3.5701303822       -4.0995162215       26.0463199105  TIP3      1017            0.0000000000
     25370      1209  TIP3      H1             -3.9490558829       -4.7714357229       25.4699536188  TIP3      1017            0.0000000000
     25371      1209  TIP3      H2             -3.7376232318       -4.5589251044       26.8937134724  TIP3      1017            0.0000000000
     25372      1210  TIP3      OH2            -1.9652424448       -5.4075945119       34.6677306451  TIP3      1018            0.0000000000
     25373      1210  TIP3      H1             -1.7797793304       -6.1254946965       34.0199485305  TIP3      1018            0.0000000000
     25374      1210  TIP3      H2             -1.7695192163       -4.6251864365       34.1167462286  TIP3      1018            0.0000000000
     25375      1211  TIP3      OH2            -7.2908384611       -8.6273533108       24.4181733089  TIP3      1019            0.0000000000
     25376      1211  TIP3      H1             -7.9081749772       -7.9060469077       24.1956748490  TIP3      1019            0.0000000000
     25377      1211  TIP3      H2             -6.7580411336       -8.7134127318       23.6000789096  TIP3      1019            0.0000000000
     25378      1212  TIP3      OH2             0.0539504942       -8.9429493727       32.5020116792  TIP3      1020            0.0000000000
     25379      1212  TIP3      H1             -0.6012454643       -8.2152955170       32.4851026569  TIP3      1020            0.0000000000
     25380      1212  TIP3      H2              0.7095748375       -8.5996110678       31.8633705711  TIP3      1020            0.0000000000
     25381      1213  TIP3      OH2            -3.8047630080       -8.7376593465       25.3836980609  TIP3      1021            0.0000000000
     25382      1213  TIP3      H1             -4.4428044038       -8.2345591473       25.9510540364  TIP3      1021            0.0000000000
     25383      1213  TIP3      H2             -3.1172266877       -8.9678684120       26.0336577992  TIP3      1021            0.0000000000
     25384      1214  TIP3      OH2            -3.8957559113       -9.8967370872       34.3564013032  TIP3      1022            0.0000000000
     25385      1214  TIP3      H1             -3.8647177597       -8.9829362111       34.6612903060  TIP3      1022            0.0000000000
     25386      1214  TIP3      H2             -4.6920449099       -9.8460470560       33.8072587120  TIP3      1022            0.0000000000
     25387      1215  TIP3      OH2           -12.2131383158       -7.6613537388       27.1003097506  TIP3      1023            0.0000000000
     25388      1215  TIP3      H1            -12.5937164625       -8.0844889879       26.3249617348  TIP3      1023            0.0000000000
     25389      1215  TIP3      H2            -11.6359428078       -8.3742704461       27.4607374817  TIP3      1023            0.0000000000
     25390      1216  TIP3      OH2           -11.0050321298       -4.3945119672       29.7663078017  TIP3      1024            0.0000000000
     25391      1216  TIP3      H1            -10.9390882653       -4.5221493585       28.8105901429  TIP3      1024            0.0000000000
     25392      1216  TIP3      H2            -10.1806241666       -4.7828181765       30.0959893666  TIP3      1024            0.0000000000
     25393      1217  TIP3      OH2           -12.3546159352       -8.9973204313       30.9203916385  TIP3      1025            0.0000000000
     25394      1217  TIP3      H1            -11.9026454908       -9.0532223565       30.0499695197  TIP3      1025            0.0000000000
     25395      1217  TIP3      H2            -11.8229706585       -8.3034273846       31.3719582680  TIP3      1025            0.0000000000
     25396      1218  TIP3      OH2            -5.5176995423       -3.2920040013       31.6386610928  TIP3      1026            0.0000000000
     25397      1218  TIP3      H1             -5.7496732843       -2.7064416762       32.3832085458  TIP3      1026            0.0000000000
     25398      1218  TIP3      H2             -5.7137092457       -4.1816557430       31.9997754641  TIP3      1026            0.0000000000
     25399      1219  TIP3      OH2           -11.0248741643       -4.5248435829       35.3128508202  TIP3      1027            0.0000000000
     25400      1219  TIP3      H1            -11.7491376743       -4.0493249486       35.7719204889  TIP3      1027            0.0000000000
     25401      1219  TIP3      H2            -11.4585523876       -4.6924953300       34.4455877491  TIP3      1027            0.0000000000
     25402      1220  TIP3      OH2            -4.9670712616       -8.8389997134       23.0135749737  TIP3      1028            0.0000000000
     25403      1220  TIP3      H1             -4.6512574869       -8.8291589342       23.9592062229  TIP3      1028            0.0000000000
     25404      1220  TIP3      H2             -4.2634606870       -8.3386883551       22.6028291292  TIP3      1028            0.0000000000
     25405      1221  TIP3      OH2           -13.8845650419       -8.2583845256       34.2619790234  TIP3      1029            0.0000000000
     25406      1221  TIP3      H1            -13.8049467341       -7.3472643418       34.5787129244  TIP3      1029            0.0000000000
     25407      1221  TIP3      H2            -14.6510626753       -8.5553578713       34.7749402155  TIP3      1029            0.0000000000
     25408      1222  TIP3      OH2            -7.2701308263       -2.4999300666       26.2860867348  TIP3      1030            0.0000000000
     25409      1222  TIP3      H1             -6.3852214199       -2.3343433277       26.6515793606  TIP3      1030            0.0000000000
     25410      1222  TIP3      H2             -7.8509821600       -2.2520226143       27.0147847961  TIP3      1030            0.0000000000
     25411      1223  TIP3      OH2           -12.7482034892       -2.7865659268       36.4710783934  TIP3      1031            0.0000000000
     25412      1223  TIP3      H1            -12.8315487971       -2.4686241087       35.5483864755  TIP3      1031            0.0000000000
     25413      1223  TIP3      H2            -13.6878821897       -3.0205196374       36.6465970164  TIP3      1031            0.0000000000
     25414      1224  TIP3      OH2            -1.0750000041      -17.2595629247       23.2041402531  TIP3      1032            0.0000000000
     25415      1224  TIP3      H1             -2.0198957873      -17.3615833701       23.4678160455  TIP3      1032            0.0000000000
     25416      1224  TIP3      H2             -1.1705345119      -16.7284188461       22.4074926395  TIP3      1032            0.0000000000
     25417      1225  TIP3      OH2             0.2914950880       -2.6360101855       21.7037997228  TIP3      1033            0.0000000000
     25418      1225  TIP3      H1             -0.1195241506       -2.6567564486       20.8281999670  TIP3      1033            0.0000000000
     25419      1225  TIP3      H2              1.1042435199       -3.1631474347       21.5522962682  TIP3      1033            0.0000000000
     25420      1226  TIP3      OH2           -16.8462596536       -6.1641012193       33.7302235039  TIP3      1034            0.0000000000
     25421      1226  TIP3      H1            -17.1614878346       -6.2617512257       32.8205437497  TIP3      1034            0.0000000000
     25422      1226  TIP3      H2            -16.6435974256       -7.0977495593       33.9515307046  TIP3      1034            0.0000000000
     25423      1227  TIP3      OH2           -17.6094510560       -3.3802288904       30.3741163585  TIP3      1035            0.0000000000
     25424      1227  TIP3      H1            -16.6522062698       -3.4981010577       30.2774237529  TIP3      1035            0.0000000000
     25425      1227  TIP3      H2            -17.6619362754       -2.6950707027       31.0494657858  TIP3      1035            0.0000000000
     25426      1228  TIP3      OH2             0.6657077719       -2.8443889457       36.1900996576  TIP3      1036            0.0000000000
     25427      1228  TIP3      H1              0.5652741023       -3.8125724610       36.2751933785  TIP3      1036            0.0000000000
     25428      1228  TIP3      H2             -0.1733684471       -2.5460235153       36.6195312941  TIP3      1036            0.0000000000
     25429      1229  TIP3      OH2            -8.3524033557       -3.3671463170       35.2832698398  TIP3      1037            0.0000000000
     25430      1229  TIP3      H1             -8.2144183441       -2.6292927054       35.9172379280  TIP3      1037            0.0000000000
     25431      1229  TIP3      H2             -9.2833465617       -3.6276567891       35.4300922054  TIP3      1037            0.0000000000
     25432      1230  TIP3      OH2           -14.1937774431       -0.6608608023       26.8324691527  TIP3      1038            0.0000000000
     25433      1230  TIP3      H1            -13.9841812988       -1.0436265371       27.7090917420  TIP3      1038            0.0000000000
     25434      1230  TIP3      H2            -14.9601296541       -1.2209455477       26.5385075563  TIP3      1038            0.0000000000
     25435      1231  TIP3      OH2            -5.4109133208       -0.2082182350       24.6961071975  TIP3      1039            0.0000000000
     25436      1231  TIP3      H1             -6.0755831965       -0.3651876445       25.3740226743  TIP3      1039            0.0000000000
     25437      1231  TIP3      H2             -4.6433142367       -0.7126088445       25.0038241181  TIP3      1039            0.0000000000
     25438      1232  TIP3      OH2            -2.4698492106      -11.6111484121       36.6818950096  TIP3      1040            0.0000000000
     25439      1232  TIP3      H1             -2.8813001025      -11.1749348751       35.9088409184  TIP3      1040            0.0000000000
     25440      1232  TIP3      H2             -2.3749857044      -12.5150736112       36.3250358968  TIP3      1040            0.0000000000
     25441      1233  TIP3      OH2           -14.7230757023       -4.8536631297       34.6897558022  TIP3      1041            0.0000000000
     25442      1233  TIP3      H1            -14.7274723936       -5.2650491970       35.5925698414  TIP3      1041            0.0000000000
     25443      1233  TIP3      H2            -15.5746207524       -5.2070950098       34.3311218417  TIP3      1041            0.0000000000
     25444      1234  TIP3      OH2           -12.1186708491      -16.0136088868       30.6045481093  TIP3      1042            0.0000000000
     25445      1234  TIP3      H1            -12.9868507723      -15.8967823533       30.1824656318  TIP3      1042            0.0000000000
     25446      1234  TIP3      H2            -12.3417067380      -15.7189822488       31.5070898716  TIP3      1042            0.0000000000
     25447      1235  TIP3      OH2            -7.1962410556      -16.7362733298       33.6837530280  TIP3      1043            0.0000000000
     25448      1235  TIP3      H1             -6.7569504924      -17.3432277261       34.3247818685  TIP3      1043            0.0000000000
     25449      1235  TIP3      H2             -8.1278659462      -16.7741430460       33.9900928504  TIP3      1043            0.0000000000
     25450      1236  TIP3      OH2            -4.5585021281      -12.6241276428       34.6184615584  TIP3      1044            0.0000000000
     25451      1236  TIP3      H1             -4.9340728519      -12.8810126762       35.4905527408  TIP3      1044            0.0000000000
     25452      1236  TIP3      H2             -5.0354306968      -11.8092589035       34.4125617289  TIP3      1044            0.0000000000
     25453      1237  TIP3      OH2            -7.8750792761      -13.8937149596       21.5909725250  TIP3      1045            0.0000000000
     25454      1237  TIP3      H1             -8.3379289572      -14.2935502399       22.3554179318  TIP3      1045            0.0000000000
     25455      1237  TIP3      H2             -8.4874586671      -14.2423665371       20.9050238424  TIP3      1045            0.0000000000
     25456      1238  TIP3      OH2           -12.1906134015      -11.5142509473       31.7199212309  TIP3      1046            0.0000000000
     25457      1238  TIP3      H1            -12.9752248854      -11.5687497593       32.2988030306  TIP3      1046            0.0000000000
     25458      1238  TIP3      H2            -12.1996062209      -10.5462906723       31.5249221083  TIP3      1046            0.0000000000
     25459      1239  TIP3      OH2           -12.2918721141      -11.4377408730       26.7007971136  TIP3      1047            0.0000000000
     25460      1239  TIP3      H1            -13.2293075966      -11.5691198654       26.4287323315  TIP3      1047            0.0000000000
     25461      1239  TIP3      H2            -11.7841197690      -11.8848247639       26.0068828865  TIP3      1047            0.0000000000
     25462      1240  TIP3      OH2            -6.6324144304      -10.8928970447       25.7197208559  TIP3      1048            0.0000000000
     25463      1240  TIP3      H1             -6.9504578642      -10.0486717704       25.3321609931  TIP3      1048            0.0000000000
     25464      1240  TIP3      H2             -6.0330034463      -11.2109083720       25.0288296989  TIP3      1048            0.0000000000
     25465      1241  TIP3      OH2            -7.5773882040      -10.4338313855       37.0056384586  TIP3      1049            0.0000000000
     25466      1241  TIP3      H1             -7.9847760928      -11.2414714395       37.3761457097  TIP3      1049            0.0000000000
     25467      1241  TIP3      H2             -6.7287687736      -10.4746601093       37.4879447352  TIP3      1049            0.0000000000
     25468      1242  TIP3      OH2            -5.9581703705      -11.1849799793       28.4580174481  TIP3      1050            0.0000000000
     25469      1242  TIP3      H1             -5.9799883606      -10.3237270337       27.9898781654  TIP3      1050            0.0000000000
     25470      1242  TIP3      H2             -5.8792525616      -11.7883737780       27.6935494868  TIP3      1050            0.0000000000
     25471      1243  TIP3      OH2           -14.6808869772      -11.4018701676       33.0319347071  TIP3      1051            0.0000000000
     25472      1243  TIP3      H1            -14.2434024193      -11.0447723670       33.8209276057  TIP3      1051            0.0000000000
     25473      1243  TIP3      H2            -14.9690394553      -12.2768891746       33.3616220402  TIP3      1051            0.0000000000
     25474      1244  TIP3      OH2           -17.8288262150      -14.3719781149       27.6658520120  TIP3      1052            0.0000000000
     25475      1244  TIP3      H1            -17.0991264064      -14.4497795074       28.3067157962  TIP3      1052            0.0000000000
     25476      1244  TIP3      H2            -17.4255299618      -14.4959674684       26.7777730269  TIP3      1052            0.0000000000
     25477      1245  TIP3      OH2           -16.7376955122      -13.0670128290       23.4146665977  TIP3      1053            0.0000000000
     25478      1245  TIP3      H1            -16.1738025061      -12.6194082943       22.7768324813  TIP3      1053            0.0000000000
     25479      1245  TIP3      H2            -17.5882460265      -12.6418367818       23.2014493138  TIP3      1053            0.0000000000
     25480      1246  TIP3      OH2            -6.6223042844       -9.7317278807       32.7796554532  TIP3      1054            0.0000000000
     25481      1246  TIP3      H1             -6.0111736374      -10.4126913232       32.4040496137  TIP3      1054            0.0000000000
     25482      1246  TIP3      H2             -7.2087803259      -10.2914633283       33.3494885251  TIP3      1054            0.0000000000
     25483      1247  TIP3      OH2            -9.3519327309      -13.9876076880       27.8537398348  TIP3      1055            0.0000000000
     25484      1247  TIP3      H1            -10.2882160940      -14.2286082543       28.0013779269  TIP3      1055            0.0000000000
     25485      1247  TIP3      H2             -8.9388144120      -14.2025534225       28.7071964035  TIP3      1055            0.0000000000
     25486      1248  TIP3      OH2           -14.8571727546      -12.3822868288       26.6276223600  TIP3      1056            0.0000000000
     25487      1248  TIP3      H1            -15.5120355935      -12.0087927756       25.9857079418  TIP3      1056            0.0000000000
     25488      1248  TIP3      H2            -14.8489116901      -13.3328239027       26.3868513902  TIP3      1056            0.0000000000
     25489      1249  TIP3      OH2            -5.2328339674      -14.5927612475       30.7593146182  TIP3      1057            0.0000000000
     25490      1249  TIP3      H1             -5.9892367813      -14.5627876684       31.3703661667  TIP3      1057            0.0000000000
     25491      1249  TIP3      H2             -5.5937440056      -15.0946291348       29.9875874765  TIP3      1057            0.0000000000
     25492      1250  TIP3      OH2            -2.3453117996        0.9354225159       37.6376518395  TIP3      1058            0.0000000000
     25493      1250  TIP3      H1             -1.9708982900        1.1995371394       36.7806213603  TIP3      1058            0.0000000000
     25494      1250  TIP3      H2             -1.5418059107        0.9974939563       38.1877841094  TIP3      1058            0.0000000000
     25495      1251  TIP3      OH2           -14.5198896224       -6.5451965392       36.7898933701  TIP3      1059            0.0000000000
     25496      1251  TIP3      H1            -13.8164405863       -6.2891842117       37.4190661786  TIP3      1059            0.0000000000
     25497      1251  TIP3      H2            -15.2828855412       -6.6873492892       37.3864279702  TIP3      1059            0.0000000000
     25498      1252  TIP3      OH2            -8.9250511177      -11.1049709575       29.2822621148  TIP3      1060            0.0000000000
     25499      1252  TIP3      H1             -8.0193819008      -11.3747073027       29.0346018506  TIP3      1060            0.0000000000
     25500      1252  TIP3      H2             -9.1984411820      -11.8081690175       29.8960994694  TIP3      1060            0.0000000000
     25501      1253  TIP3      OH2           -13.9775132135      -15.1399981325       26.3509039686  TIP3      1061            0.0000000000
     25502      1253  TIP3      H1            -14.4025850518      -15.8584873641       26.8656983144  TIP3      1061            0.0000000000
     25503      1253  TIP3      H2            -13.5637336649      -15.6485283635       25.6342698486  TIP3      1061            0.0000000000
     25504      1254  TIP3      OH2            -9.8612943275      -12.9447342848       31.8399322440  TIP3      1062            0.0000000000
     25505      1254  TIP3      H1            -10.6622202180      -12.3926930432       31.7033464156  TIP3      1062            0.0000000000
     25506      1254  TIP3      H2             -9.3206318840      -12.3892817508       32.4176052132  TIP3      1062            0.0000000000
     25507      1255  TIP3      OH2            -9.1385965620       -6.4608905210       23.8474095763  TIP3      1063            0.0000000000
     25508      1255  TIP3      H1             -9.6369482328       -6.0073393257       23.1498935652  TIP3      1063            0.0000000000
     25509      1255  TIP3      H2             -9.5476281492       -6.1061818145       24.6671762415  TIP3      1063            0.0000000000
     25510      1256  TIP3      OH2            -1.7167173118       -6.9117616391       32.5596384698  TIP3      1064            0.0000000000
     25511      1256  TIP3      H1             -1.2675311072       -6.2899069202       31.9305382056  TIP3      1064            0.0000000000
     25512      1256  TIP3      H2             -2.5638787246       -7.0456555533       32.1024488232  TIP3      1064            0.0000000000
     25513      1257  TIP3      OH2            -5.2029411962      -13.8757300090       22.3903240915  TIP3      1065            0.0000000000
     25514      1257  TIP3      H1             -6.1424138091      -13.7749590423       22.0929659703  TIP3      1065            0.0000000000
     25515      1257  TIP3      H2             -4.9228291494      -12.9510134978       22.5607345741  TIP3      1065            0.0000000000
     25516      1258  TIP3      OH2            -8.2152684512       -6.0953716543       34.7809223775  TIP3      1066            0.0000000000
     25517      1258  TIP3      H1             -8.1758358341       -6.3701799347       35.7029224334  TIP3      1066            0.0000000000
     25518      1258  TIP3      H2             -8.2995966426       -5.1288407262       34.8760090712  TIP3      1066            0.0000000000
     25519      1259  TIP3      OH2            -4.6280510841      -11.5199830491       23.4900375886  TIP3      1067            0.0000000000
     25520      1259  TIP3      H1             -3.9442291038      -11.7254252093       24.1620434880  TIP3      1067            0.0000000000
     25521      1259  TIP3      H2             -4.4044340859      -10.6075290051       23.2580902670  TIP3      1067            0.0000000000
     25522      1260  TIP3      OH2           -13.9439787829       -7.0047451599       29.2718676542  TIP3      1068            0.0000000000
     25523      1260  TIP3      H1            -13.1535754734       -7.2257565224       28.7352772831  TIP3      1068            0.0000000000
     25524      1260  TIP3      H2            -13.9503448401       -7.7219430467       29.9271644372  TIP3      1068            0.0000000000
     25525      1261  TIP3      OH2            -7.1122372391       -4.8921111760       23.2275760560  TIP3      1069            0.0000000000
     25526      1261  TIP3      H1             -7.5047422582       -4.4452082193       22.4664515616  TIP3      1069            0.0000000000
     25527      1261  TIP3      H2             -7.7441251835       -5.6375152647       23.3473030899  TIP3      1069            0.0000000000
     25528      1262  TIP3      OH2           -16.9913842885       -8.7266752514       34.8293829870  TIP3      1070            0.0000000000
     25529      1262  TIP3      H1            -17.0591317256       -9.3167974387       35.5985191723  TIP3      1070            0.0000000000
     25530      1262  TIP3      H2            -17.5717354898       -9.1402157893       34.1603679437  TIP3      1070            0.0000000000
     25531      1263  TIP3      OH2            -9.9020991660       -9.1403950327       36.4409513087  TIP3      1071            0.0000000000
     25532      1263  TIP3      H1            -10.3460160800       -9.9375650920       36.1247244824  TIP3      1071            0.0000000000
     25533      1263  TIP3      H2             -8.9799395488       -9.4549501107       36.5569961027  TIP3      1071            0.0000000000
     25534      1264  TIP3      OH2            -5.1613445880       -3.8947702898       35.2104981838  TIP3      1072            0.0000000000
     25535      1264  TIP3      H1             -5.8644223314       -3.7793374478       34.5589844085  TIP3      1072            0.0000000000
     25536      1264  TIP3      H2             -5.5246066247       -3.3568014158       35.9406410467  TIP3      1072            0.0000000000
     25537      1265  TIP3      OH2             0.1555496335      -11.4111494713       23.5058715987  TIP3      1073            0.0000000000
     25538      1265  TIP3      H1             -0.4805187822      -11.5891023915       22.7841021715  TIP3      1073            0.0000000000
     25539      1265  TIP3      H2              0.5381136346      -10.5720064846       23.2095153058  TIP3      1073            0.0000000000
     25540      1266  TIP3      OH2             0.5784046481       -5.5648840463       35.8259455489  TIP3      1074            0.0000000000
     25541      1266  TIP3      H1             -0.3237706322       -5.5034411798       35.4226625700  TIP3      1074            0.0000000000
     25542      1266  TIP3      H2              1.1264805122       -5.7333454347       35.0301922674  TIP3      1074            0.0000000000
     25543      1267  TIP3      OH2            -1.9291851223       -2.8460197182       23.5706856383  TIP3      1075            0.0000000000
     25544      1267  TIP3      H1             -1.7820784599       -3.2607020091       24.4335386604  TIP3      1075            0.0000000000
     25545      1267  TIP3      H2             -1.0510963756       -2.7682678351       23.1470975665  TIP3      1075            0.0000000000
     25546      1268  TIP3      OH2            -4.1062727300       -7.9045220718       30.6845479111  TIP3      1076            0.0000000000
     25547      1268  TIP3      H1             -5.0284968159       -8.1109616832       30.4702433658  TIP3      1076            0.0000000000
     25548      1268  TIP3      H2             -3.6383876883       -8.5823002549       30.1592487786  TIP3      1076            0.0000000000
     25549      1269  TIP3      OH2           -11.8557287561       -3.4911061442       26.9242193483  TIP3      1077            0.0000000000
     25550      1269  TIP3      H1            -11.7338141821       -2.5932795876       26.5355809580  TIP3      1077            0.0000000000
     25551      1269  TIP3      H2            -12.8104680634       -3.5828822390       26.8326424128  TIP3      1077            0.0000000000
     25552      1270  TIP3      OH2           -10.2278778362       -5.6258223792       26.4474428880  TIP3      1078            0.0000000000
     25553      1270  TIP3      H1            -10.7530999320       -4.8066121883       26.5816956954  TIP3      1078            0.0000000000
     25554      1270  TIP3      H2            -10.8025231498       -6.3111361442       26.8354021252  TIP3      1078            0.0000000000
     25555      1271  TIP3      OH2            -9.8532725388       -1.5998369120       33.4126773698  TIP3      1079            0.0000000000
     25556      1271  TIP3      H1             -9.1255534043       -1.0954525830       32.9887093310  TIP3      1079            0.0000000000
     25557      1271  TIP3      H2             -9.3397273347       -2.1210947814       34.0555377666  TIP3      1079            0.0000000000
     25558      1272  TIP3      OH2           -11.6853892338       -0.9886799989       25.8566193208  TIP3      1080            0.0000000000
     25559      1272  TIP3      H1            -12.6238372718       -0.8056122559       26.0832795848  TIP3      1080            0.0000000000
     25560      1272  TIP3      H2            -11.2784734381       -0.1721687325       26.2122602719  TIP3      1080            0.0000000000
     25561      1273  TIP3      OH2            -6.6507481042       -5.7705309327       32.4996226543  TIP3      1081            0.0000000000
     25562      1273  TIP3      H1             -7.0754827335       -6.0774721302       33.3383315979  TIP3      1081            0.0000000000
     25563      1273  TIP3      H2             -6.2263665819       -6.5801387112       32.1630664213  TIP3      1081            0.0000000000
     25564      1274  TIP3      OH2            -3.3453873567       -1.1038877387       34.9393532414  TIP3      1082            0.0000000000
     25565      1274  TIP3      H1             -4.2362588482       -1.4811971450       34.8383593646  TIP3      1082            0.0000000000
     25566      1274  TIP3      H2             -3.3193600571       -0.5004220479       34.1599274528  TIP3      1082            0.0000000000
     25567      1275  TIP3      OH2           -15.1812543397      -13.9003807175       34.4136820174  TIP3      1083            0.0000000000
     25568      1275  TIP3      H1            -15.7614076456      -13.4652198683       35.0636287187  TIP3      1083            0.0000000000
     25569      1275  TIP3      H2            -15.4448866863      -14.8281419222       34.5680602099  TIP3      1083            0.0000000000
     25570      1276  TIP3      OH2           -15.8553772141       -2.2489914333       32.5775598658  TIP3      1084            0.0000000000
     25571      1276  TIP3      H1            -15.0988945008       -2.8080416206       32.8160467507  TIP3      1084            0.0000000000
     25572      1276  TIP3      H2            -16.0240235121       -1.7616626079       33.3967061976  TIP3      1084            0.0000000000
     25573      1277  TIP3      OH2           -14.5357500000       -6.5652145058       22.6836411893  TIP3      1085            0.0000000000
     25574      1277  TIP3      H1            -15.3667307024       -6.3296525772       23.1442533471  TIP3      1085            0.0000000000
     25575      1277  TIP3      H2            -14.3771368151       -5.7582930596       22.1727849287  TIP3      1085            0.0000000000
     25576      1278  TIP3      OH2            -6.7635409269      -14.0450209427       33.5330821309  TIP3      1086            0.0000000000
     25577      1278  TIP3      H1             -5.8930841439      -13.9393687982       33.9582995518  TIP3      1086            0.0000000000
     25578      1278  TIP3      H2             -6.9516948241      -14.9935487394       33.7051988974  TIP3      1086            0.0000000000
     25579      1279  TIP3      OH2            -6.0954852008      -14.4594421822       24.8436654660  TIP3      1087            0.0000000000
     25580      1279  TIP3      H1             -5.7291004095      -14.2552695859       23.9602157990  TIP3      1087            0.0000000000
     25581      1279  TIP3      H2             -5.4486834983      -14.0468467922       25.4608235771  TIP3      1087            0.0000000000
     25582      1280  TIP3      OH2            -9.0132342198      -12.3979701543       25.5305510066  TIP3      1088            0.0000000000
     25583      1280  TIP3      H1             -8.1736312864      -11.8964941203       25.6149987723  TIP3      1088            0.0000000000
     25584      1280  TIP3      H2             -9.0599788019      -12.9190605679       26.3561289021  TIP3      1088            0.0000000000
     25585      1281  TIP3      OH2            -7.8132535050      -11.4673856478       34.3951986089  TIP3      1089            0.0000000000
     25586      1281  TIP3      H1             -7.7868007270      -11.2557648583       35.3570357256  TIP3      1089            0.0000000000
     25587      1281  TIP3      H2             -7.5133786013      -12.3973467290       34.3314502870  TIP3      1089            0.0000000000
     25588      1282  TIP3      OH2            -7.9390649663      -15.7866835538       26.3367393252  TIP3      1090            0.0000000000
     25589      1282  TIP3      H1             -8.4394626273      -15.1200181349       26.8558549161  TIP3      1090            0.0000000000
     25590      1282  TIP3      H2             -7.2142461653      -15.2235937093       25.9536662660  TIP3      1090            0.0000000000
     25591      1283  TIP3      OH2            -2.2477385251      -13.8733939197       35.2074245709  TIP3      1091            0.0000000000
     25592      1283  TIP3      H1             -3.1578540632      -13.5882266938       34.9525497113  TIP3      1091            0.0000000000
     25593      1283  TIP3      H2             -1.8160806836      -13.9929368043       34.3409262682  TIP3      1091            0.0000000000
     25594      1284  TIP3      OH2            -3.2326451163      -10.3808292098       29.2072182037  TIP3      1092            0.0000000000
     25595      1284  TIP3      H1             -3.9825043300      -10.9600893169       29.4260679846  TIP3      1092            0.0000000000
     25596      1284  TIP3      H2             -2.5116112005      -10.7999479091       29.7233111058  TIP3      1092            0.0000000000
     25597      1285  TIP3      OH2           -16.1688252343      -11.8147997563       20.9819786566  TIP3      1093            0.0000000000
     25598      1285  TIP3      H1            -15.7579628349      -10.9852691697       20.6949262511  TIP3      1093            0.0000000000
     25599      1285  TIP3      H2            -17.0086035236      -11.4611462186       21.3538718029  TIP3      1093            0.0000000000
     25600      1286  TIP3      OH2            -2.5291128348       -0.9357566438       30.8105687596  TIP3      1094            0.0000000000
     25601      1286  TIP3      H1             -2.4432961103       -0.3184759225       30.0488164367  TIP3      1094            0.0000000000
     25602      1286  TIP3      H2             -1.5876495093       -0.9862333163       31.0524890199  TIP3      1094            0.0000000000
     25603      1287  TIP3      OH2           -14.7451741144      -16.6335707417       30.0992582251  TIP3      1095            0.0000000000
     25604      1287  TIP3      H1            -14.7285150829      -17.0172993804       29.1955185745  TIP3      1095            0.0000000000
     25605      1287  TIP3      H2            -15.1297500261      -17.4053294446       30.5821166650  TIP3      1095            0.0000000000
     25606      1288  TIP3      OH2           -16.0419743726       -2.3345863229       25.9024344923  TIP3      1096            0.0000000000
     25607      1288  TIP3      H1            -16.9448148804       -2.0038133231       25.9628867601  TIP3      1096            0.0000000000
     25608      1288  TIP3      H2            -15.9376609471       -2.5457062633       24.9659037606  TIP3      1096            0.0000000000
     25609      1289  TIP3      OH2           -16.8805630050        0.1366888899       37.2406643943  TIP3      1097            0.0000000000
     25610      1289  TIP3      H1            -16.3114061056        0.0365041232       38.0405099846  TIP3      1097            0.0000000000
     25611      1289  TIP3      H2            -17.2105752166       -0.7773601507       37.1750089489  TIP3      1097            0.0000000000
     25612      1290  TIP3      OH2           -11.7412902405       -1.5992089168       38.9118398714  TIP3      1098            0.0000000000
     25613      1290  TIP3      H1            -10.8371282694       -1.9604596114       38.9501636827  TIP3      1098            0.0000000000
     25614      1290  TIP3      H2            -12.0760240249       -2.0189399479       38.0947779454  TIP3      1098            0.0000000000
     25615      1291  TIP3      OH2            -5.7853502325       -2.5308240236       37.5246126153  TIP3      1099            0.0000000000
     25616      1291  TIP3      H1             -5.9759075696       -3.4196487058       37.9031402015  TIP3      1099            0.0000000000
     25617      1291  TIP3      H2             -4.8730900333       -2.4363740944       37.8879021154  TIP3      1099            0.0000000000
     25618      1292  TIP3      OH2           -17.0341587993       -6.4861195725       38.0996481768  TIP3      1100            0.0000000000
     25619      1292  TIP3      H1            -17.4717006511       -7.3501583413       38.1212910888  TIP3      1100            0.0000000000
     25620      1292  TIP3      H2            -17.4536937772       -6.0766944501       37.3067993747  TIP3      1100            0.0000000000
     25621      1293  TIP3      OH2           -10.2212793510       -6.5397676810       37.0225648781  TIP3      1101            0.0000000000
     25622      1293  TIP3      H1            -10.4888377741       -5.9005594228       36.3281645863  TIP3      1101            0.0000000000
     25623      1293  TIP3      H2            -10.1004482918       -7.3908469966       36.5281296041  TIP3      1101            0.0000000000
     25624      1294  TIP3      OH2            -4.5037962683       -6.5246068132       35.1454533811  TIP3      1102            0.0000000000
     25625      1294  TIP3      H1             -3.6485740037       -6.0431725145       35.0871586659  TIP3      1102            0.0000000000
     25626      1294  TIP3      H2             -5.0611118747       -5.7235742492       35.1733670740  TIP3      1102            0.0000000000
     25627      1295  TIP3      OH2           -15.7196981866       -9.4344208651       37.5691652283  TIP3      1103            0.0000000000
     25628      1295  TIP3      H1            -15.0272777563      -10.0726660572       37.7757507097  TIP3      1103            0.0000000000
     25629      1295  TIP3      H2            -15.6068906216       -8.7986300084       38.3072051391  TIP3      1103            0.0000000000
     25630      1296  TIP3      OH2           -12.2266911081      -10.3089935996       34.2796316069  TIP3      1104            0.0000000000
     25631      1296  TIP3      H1            -12.7360126133       -9.4727501701       34.3626072020  TIP3      1104            0.0000000000
     25632      1296  TIP3      H2            -11.3919814198       -9.9445824554       33.9204546059  TIP3      1104            0.0000000000
     25633      1297  TIP3      OH2            -6.5601902916       -7.3837632407       38.2415460562  TIP3      1105            0.0000000000
     25634      1297  TIP3      H1             -5.9951920122       -7.8515820588       37.6006095208  TIP3      1105            0.0000000000
     25635      1297  TIP3      H2             -6.8471033484       -8.0945393434       38.8287412632  TIP3      1105            0.0000000000
     25636      1298  TIP3      OH2           -10.9680004640      -12.4135905842       35.4606931731  TIP3      1106            0.0000000000
     25637      1298  TIP3      H1            -10.8162785733      -13.0866705993       34.7703320701  TIP3      1106            0.0000000000
     25638      1298  TIP3      H2            -11.2735758324      -11.6447998307       34.9299485794  TIP3      1106            0.0000000000
     25639      1299  TIP3      OH2           -11.0015565501      -14.6990663808       33.5854435525  TIP3      1107            0.0000000000
     25640      1299  TIP3      H1            -10.6076995815      -14.2076650860       32.8309844477  TIP3      1107            0.0000000000
     25641      1299  TIP3      H2            -11.9582984818      -14.6850156153       33.3606972597  TIP3      1107            0.0000000000
     25642      1300  TIP3      OH2            -9.7289020627       -8.8687405031       33.3572397317  TIP3      1108            0.0000000000
     25643      1300  TIP3      H1             -8.8846415541       -8.4643082305       33.1078575582  TIP3      1108            0.0000000000
     25644      1300  TIP3      H2            -10.3572885821       -8.1604880775       33.1025077289  TIP3      1108            0.0000000000
     25645      1301  TIP3      OH2            -5.6810494393      -11.0258946719       38.8515406463  TIP3      1109            0.0000000000
     25646      1301  TIP3      H1             -5.5121047295      -11.8614616544       39.3415118820  TIP3      1109            0.0000000000
     25647      1301  TIP3      H2             -4.7894853911      -10.7953110726       38.5370819379  TIP3      1109            0.0000000000
     25648      1302  TIP3      OH2            -3.6858680463       -8.1042583027       37.1622327232  TIP3      1110            0.0000000000
     25649      1302  TIP3      H1             -4.0375213789       -7.6055177085       36.3946240970  TIP3      1110            0.0000000000
     25650      1302  TIP3      H2             -2.7733634553       -8.3171936890       36.8666324321  TIP3      1110            0.0000000000
     25651      1303  TIP3      OH2           -12.7373821637      -11.8810018144       37.6800717711  TIP3      1111            0.0000000000
     25652      1303  TIP3      H1            -13.5746786878      -12.2985289567       37.3904867974  TIP3      1111            0.0000000000
     25653      1303  TIP3      H2            -12.1721454224      -11.9680522273       36.8865316119  TIP3      1111            0.0000000000
     25654      1304  TIP3      OH2            -9.9954806220      -17.1310316218       33.9494955685  TIP3      1112            0.0000000000
     25655      1304  TIP3      H1            -10.3071877498      -16.1999879450       33.9634804664  TIP3      1112            0.0000000000
     25656      1304  TIP3      H2            -10.7528251744      -17.5509678363       33.5163871995  TIP3      1112            0.0000000000
     25657      1305  TIP3      OH2            -9.0004036182      -12.8151080470       37.8239122332  TIP3      1113            0.0000000000
     25658      1305  TIP3      H1             -9.6590244965      -13.0104370940       38.5198157939  TIP3      1113            0.0000000000
     25659      1305  TIP3      H2             -9.5664536725      -12.9317429453       37.0432139872  TIP3      1113            0.0000000000
     25660      1306  TIP3      OH2            -6.3314705408      -13.2669616669       36.7038681466  TIP3      1114            0.0000000000
     25661      1306  TIP3      H1             -7.2755184786      -13.3924988783       36.9023057763  TIP3      1114            0.0000000000
     25662      1306  TIP3      H2             -5.9657333819      -13.8735237393       37.3900134427  TIP3      1114            0.0000000000
     25663      1307  TIP3      OH2            -5.3177562788      -15.1037907704       38.4612733097  TIP3      1115            0.0000000000
     25664      1307  TIP3      H1             -4.7024762682      -15.8562398070       38.5329128297  TIP3      1115            0.0000000000
     25665      1307  TIP3      H2             -5.1517887956      -14.6520496378       39.3172363071  TIP3      1115            0.0000000000
     25666      1308  TIP3      OH2           -14.9499546452      -13.5565140951       37.7466678200  TIP3      1116            0.0000000000
     25667      1308  TIP3      H1            -14.8500784891      -14.3737118133       37.2243969916  TIP3      1116            0.0000000000
     25668      1308  TIP3      H2            -15.0620715025      -13.9461719453       38.6546917831  TIP3      1116            0.0000000000
     25669      1309  TIP3      OH2           -10.3457730284      -17.7539072654       36.6308781528  TIP3      1117            0.0000000000
     25670      1309  TIP3      H1             -9.7764012640      -18.5422278342       36.7219890610  TIP3      1117            0.0000000000
     25671      1309  TIP3      H2            -10.2239648242      -17.6017535717       35.6734099521  TIP3      1117            0.0000000000
     25672      1310  TIP3      OH2           -10.4233014397      -16.5190199578       39.2583401482  TIP3      1118            0.0000000000
     25673      1310  TIP3      H1            -10.3678338294      -16.9754000018       38.3870304323  TIP3      1118            0.0000000000
     25674      1310  TIP3      H2            -10.5790762647      -15.6039291414       38.9553588964  TIP3      1118            0.0000000000
     25675      1311  TIP3      OH2           -17.7393355551        0.5699542236       26.2973473669  TIP3      1119            0.0000000000
     25676      1311  TIP3      H1            -18.5622206682        0.1960054332       25.9099406578  TIP3      1119            0.0000000000
     25677      1311  TIP3      H2            -17.6402492906        0.0430806371       27.1223568376  TIP3      1119            0.0000000000
     25678      1312  TIP3      OH2           -17.1685763442       -1.0706727275       28.3076141109  TIP3      1120            0.0000000000
     25679      1312  TIP3      H1            -17.7711950426       -1.6865236482       28.7624740388  TIP3      1120            0.0000000000
     25680      1312  TIP3      H2            -16.4285477055       -1.0102827633       28.9488129643  TIP3      1120            0.0000000000
     25681      1313  TIP3      OH2             0.2345175129       -0.3142084910       30.9354839032  TIP3      1121            0.0000000000
     25682      1313  TIP3      H1              0.5525826201       -0.4092635373       31.8497483669  TIP3      1121            0.0000000000
     25683      1313  TIP3      H2              0.7293290432        0.4636801690       30.6607565109  TIP3      1121            0.0000000000
     25684      1314  TIP3      OH2            -0.0484572313       -1.0127370493       33.9137682073  TIP3      1122            0.0000000000
     25685      1314  TIP3      H1             -0.3946415310       -1.8024913774       33.4387403227  TIP3      1122            0.0000000000
     25686      1314  TIP3      H2              0.1528245387       -1.3970482594       34.7858206033  TIP3      1122            0.0000000000
     25687      1315  TIP3      OH2            -1.0974755480       -5.1371382948       38.7966732089  TIP3      1123            0.0000000000
     25688      1315  TIP3      H1             -1.9849399780       -5.0627447493       39.2045397015  TIP3      1123            0.0000000000
     25689      1315  TIP3      H2             -0.7461156513       -4.2480516768       39.0540840444  TIP3      1123            0.0000000000
     25690      1316  TIP3      OH2            -0.2524697799       -6.8043035763       23.8206421143  TIP3      1124            0.0000000000
     25691      1316  TIP3      H1              0.5635614577       -6.3141089040       24.0606037652  TIP3      1124            0.0000000000
     25692      1316  TIP3      H2             -0.3724260579       -7.3453946426       24.6254779222  TIP3      1124            0.0000000000
     25693      1317  TIP3      OH2            -0.0140888171       -8.5741459536       25.9408035452  TIP3      1125            0.0000000000
     25694      1317  TIP3      H1             -0.7558113402       -9.1530137665       26.2471858607  TIP3      1125            0.0000000000
     25695      1317  TIP3      H2              0.5215375914       -8.5286137029       26.7693304711  TIP3      1125            0.0000000000
     25696      1318  TIP3      OH2            -0.1888778559       -5.8898868938       30.6620517926  TIP3      1126            0.0000000000
     25697      1318  TIP3      H1              0.4852129770       -6.5995386567       30.5928750073  TIP3      1126            0.0000000000
     25698      1318  TIP3      H2              0.2213751710       -5.1533976033       30.1729406880  TIP3      1126            0.0000000000
     25699      1319  TIP3      OH2            -1.5216222228       -3.0936244371       33.1716880798  TIP3      1127            0.0000000000
     25700      1319  TIP3      H1             -2.2695176979       -2.7314014446       33.6730917184  TIP3      1127            0.0000000000
     25701      1319  TIP3      H2             -1.9397302751       -3.2677279196       32.3011044817  TIP3      1127            0.0000000000
     25702      1320  TIP3      OH2             0.6211924815       -8.6137770649       21.9227864829  TIP3      1128            0.0000000000
     25703      1320  TIP3      H1             -0.2044069517       -9.0932626548       21.7564517702  TIP3      1128            0.0000000000
     25704      1320  TIP3      H2              0.4030646183       -8.0197074302       22.6794067885  TIP3      1128            0.0000000000
     25705      1321  TIP3      OH2            -1.4140983140      -11.4967757977       20.9802981549  TIP3      1129            0.0000000000
     25706      1321  TIP3      H1             -1.2326932803      -11.1771663602       20.0853942631  TIP3      1129            0.0000000000
     25707      1321  TIP3      H2             -1.6227714493      -12.4410144069       20.7650468925  TIP3      1129            0.0000000000
     25708      1322  TIP3      OH2            -1.9812865559      -10.1267004561       26.7971916274  TIP3      1130            0.0000000000
     25709      1322  TIP3      H1             -2.5124990811      -10.8647978778       26.4408954313  TIP3      1130            0.0000000000
     25710      1322  TIP3      H2             -2.2472865879      -10.1274031152       27.7456151288  TIP3      1130            0.0000000000
     25711      1323  TIP3      OH2           -17.1017241804       -7.7678662198       30.5743624983  TIP3      1131            0.0000000000
     25712      1323  TIP3      H1            -17.1095316747       -8.0762409131       29.6441726279  TIP3      1131            0.0000000000
     25713      1323  TIP3      H2            -16.2152667475       -8.0980815285       30.8670059063  TIP3      1131            0.0000000000
     25714      1324  TIP3      OH2            -0.9059224461       -8.1223646119       36.3759620523  TIP3      1132            0.0000000000
     25715      1324  TIP3      H1             -0.4604459862       -9.0040023938       36.3756789574  TIP3      1132            0.0000000000
     25716      1324  TIP3      H2             -0.2212943386       -7.5392210419       36.0040529122  TIP3      1132            0.0000000000
     25717      1325  TIP3      OH2             0.0338404921      -10.7124923846       36.8920977804  TIP3      1133            0.0000000000
     25718      1325  TIP3      H1             -0.8181117649      -11.2040953536       36.8589710026  TIP3      1133            0.0000000000
     25719      1325  TIP3      H2              0.7053504900      -11.4343279458       36.8935265718  TIP3      1133            0.0000000000
     25720      1326  TIP3      OH2            -2.0120171280      -13.9632385861       20.1810294028  TIP3      1134            0.0000000000
     25721      1326  TIP3      H1             -1.3735948606      -14.6142698683       19.8582481765  TIP3      1134            0.0000000000
     25722      1326  TIP3      H2             -2.8751176145      -14.4047132472       20.0650485789  TIP3      1134            0.0000000000
     25723      1327  TIP3      OH2            -2.5207169772      -12.2043936807       25.1053858118  TIP3      1135            0.0000000000
     25724      1327  TIP3      H1             -2.2901586811      -13.1213018829       25.3694442894  TIP3      1135            0.0000000000
     25725      1327  TIP3      H2             -1.6184850993      -11.8635362871       24.9654627909  TIP3      1135            0.0000000000
     25726      1328  TIP3      OH2            -1.5766228088      -11.8836515970       30.6469621299  TIP3      1136            0.0000000000
     25727      1328  TIP3      H1             -0.5898692766      -11.8530159148       30.6180817984  TIP3      1136            0.0000000000
     25728      1328  TIP3      H2             -1.7033833826      -11.7357618560       31.5984606001  TIP3      1136            0.0000000000
     25729      1329  TIP3      OH2            -1.5519026494      -11.1411850616       33.2308783737  TIP3      1137            0.0000000000
     25730      1329  TIP3      H1             -2.4051826887      -10.8865831521       33.6305363895  TIP3      1137            0.0000000000
     25731      1329  TIP3      H2             -1.1860074085      -10.2620730026       32.9842997460  TIP3      1137            0.0000000000
     25732      1330  TIP3      OH2           -17.1287062357      -12.6870882948       36.6921667410  TIP3      1138            0.0000000000
     25733      1330  TIP3      H1            -16.2867001221      -12.8743445420       37.1669898434  TIP3      1138            0.0000000000
     25734      1330  TIP3      H2            -17.6572742806      -13.4951925502       36.8841752628  TIP3      1138            0.0000000000
     25735      1331  TIP3      OH2             0.6767739349      -16.7739358274       38.3743764712  TIP3      1139            0.0000000000
     25736      1331  TIP3      H1              0.9460350764      -17.5539308179       37.8488047669  TIP3      1139            0.0000000000
     25737      1331  TIP3      H2              0.6621387593      -16.0875304603       37.6749560509  TIP3      1139            0.0000000000
     25738      1332  TIP3      OH2            -1.3931398430      -14.6259079701       25.3263162709  TIP3      1140            0.0000000000
     25739      1332  TIP3      H1             -1.2337401850      -15.3005241735       26.0283661560  TIP3      1140            0.0000000000
     25740      1332  TIP3      H2             -1.8888048667      -15.1355639607       24.6748746228  TIP3      1140            0.0000000000
     25741      1333  TIP3      OH2           -16.3851816418      -14.3850264173       29.9506721354  TIP3      1141            0.0000000000
     25742      1333  TIP3      H1            -15.9903938377      -15.2780910951       30.0544207934  TIP3      1141            0.0000000000
     25743      1333  TIP3      H2            -15.6254137729      -13.8026825396       30.1146742911  TIP3      1141            0.0000000000
     25744      1334  TIP3      OH2           -17.7226220653      -11.3795358113       30.8872860797  TIP3      1142            0.0000000000
     25745      1334  TIP3      H1            -17.0780719744      -11.7445304855       30.2567508637  TIP3      1142            0.0000000000
     25746      1334  TIP3      H2            -17.3607512656      -10.4814877764       30.9473569235  TIP3      1142            0.0000000000
     25747      1335  TIP3      OH2            -0.1579343836      -14.6679445654       36.9100403286  TIP3      1143            0.0000000000
     25748      1335  TIP3      H1             -0.7665537999      -14.6605555975       37.6798977118  TIP3      1143            0.0000000000
     25749      1335  TIP3      H2             -0.7734389006      -14.9562751451       36.2038872830  TIP3      1143            0.0000000000
     25750      1336  TIP3      OH2           -17.4358016478      -15.0520898022       25.1375005893  TIP3      1144            0.0000000000
     25751      1336  TIP3      H1            -18.2903267963      -15.3234287309       24.7797029596  TIP3      1144            0.0000000000
     25752      1336  TIP3      H2            -17.0245162226      -14.6217712993       24.3635463928  TIP3      1144            0.0000000000
     25753      1337  TIP3      OH2            -2.8433470724       -0.1280005662       26.3775287555  TIP3      1145            0.0000000000
     25754      1337  TIP3      H1             -2.1065298549       -0.1590999509       25.7450396012  TIP3      1145            0.0000000000
     25755      1337  TIP3      H2             -2.4368949798        0.2462032027       27.1843297109  TIP3      1145            0.0000000000
     25756      1338  TIP3      OH2           -17.4756638942      -16.6307984470       33.2299806220  TIP3      1146            0.0000000000
     25757      1338  TIP3      H1            -18.1952161579      -17.2499545877       33.4786099171  TIP3      1146            0.0000000000
     25758      1338  TIP3      H2            -17.9190229565      -16.1467731163       32.5175069782  TIP3      1146            0.0000000000
     25759      1339  TIP3      OH2           -15.3730401452       -3.4037748710       37.0812705653  TIP3      1147            0.0000000000
     25760      1339  TIP3      H1            -16.2247268895       -3.0590621221       36.7680085568  TIP3      1147            0.0000000000
     25761      1339  TIP3      H2            -15.6001609840       -3.6729212268       37.9737063452  TIP3      1147            0.0000000000
     25762      1340  TIP3      OH2           -12.5044819453       -2.0293276049       33.7498221765  TIP3      1148            0.0000000000
     25763      1340  TIP3      H1            -12.6156093892       -1.0958300467       33.4668923867  TIP3      1148            0.0000000000
     25764      1340  TIP3      H2            -11.5276876420       -2.0601010833       33.7950951602  TIP3      1148            0.0000000000
     25765      1341  TIP3      OH2            -8.4527080408       -0.8069991773       36.3527602728  TIP3      1149            0.0000000000
     25766      1341  TIP3      H1             -8.3575477044       -0.7839040770       37.3251663140  TIP3      1149            0.0000000000
     25767      1341  TIP3      H2             -7.5903449169       -0.4213545036       36.0829040571  TIP3      1149            0.0000000000
     25768      1342  TIP3      OH2            -6.2407988335        0.7624354613       35.9315697436  TIP3      1150            0.0000000000
     25769      1342  TIP3      H1             -5.4115232785        0.3689620415       35.6204305467  TIP3      1150            0.0000000000
     25770      1342  TIP3      H2             -5.9468386206        1.2795716298       36.7063229616  TIP3      1150            0.0000000000
     25771      1343  TIP3      OH2            -1.1156487799      -17.2329220688       34.8887880484  TIP3      1151            0.0000000000
     25772      1343  TIP3      H1             -1.8642377743      -16.9080448204       34.3725617543  TIP3      1151            0.0000000000
     25773      1343  TIP3      H2             -1.0442213220      -18.1529857711       34.5523242341  TIP3      1151            0.0000000000
     25774      1344  TIP3      OH2           -15.2760018331        1.2359611767       33.5108937885  TIP3      1152            0.0000000000
     25775      1344  TIP3      H1            -16.0570853453        1.7249879050       33.1686993002  TIP3      1152            0.0000000000
     25776      1344  TIP3      H2            -15.2862699887        1.5783398798       34.4187149049  TIP3      1152            0.0000000000
     25777      1345  TIP3      OH2           -12.8827166689        0.5712332337       32.5459040845  TIP3      1153            0.0000000000
     25778      1345  TIP3      H1            -13.7500815888        0.7921854049       32.9498817356  TIP3      1153            0.0000000000
     25779      1345  TIP3      H2            -12.9197689620        1.1186235135       31.7464097957  TIP3      1153            0.0000000000
     25780      1346  TIP3      OH2            -8.0832842317        0.0541360640       31.7836677702  TIP3      1154            0.0000000000
     25781      1346  TIP3      H1             -8.6624409031        0.3974744913       31.0925366939  TIP3      1154            0.0000000000
     25782      1346  TIP3      H2             -7.8194259044        0.8954548509       32.2059091154  TIP3      1154            0.0000000000
     25783      1347  TIP3      OH2            -5.8664109208       -1.0621831508       33.2107835026  TIP3      1155            0.0000000000
     25784      1347  TIP3      H1             -6.5495734095       -0.6953901607       32.6153228783  TIP3      1155            0.0000000000
     25785      1347  TIP3      H2             -5.1141892230       -0.4943303569       32.9451894295  TIP3      1155            0.0000000000
     25786      1348  TIP3      OH2            -3.5476479341        0.5896532316       32.8416725844  TIP3      1156            0.0000000000
     25787      1348  TIP3      H1             -3.3644505694        1.5280033380       32.6176530293  TIP3      1156            0.0000000000
     25788      1348  TIP3      H2             -3.1720348243        0.1419927520       32.0545302069  TIP3      1156            0.0000000000
     25789      1349  TIP3      OH2           -15.5857002190       -0.5683248467       30.4488054088  TIP3      1157            0.0000000000
     25790      1349  TIP3      H1            -15.7062470629       -1.1508521657       31.2334146747  TIP3      1157            0.0000000000
     25791      1349  TIP3      H2            -14.6545988243       -0.7909712514       30.2007656975  TIP3      1157            0.0000000000
     25792      1350  TIP3      OH2           -13.3534630364       -1.4032750111       29.2988064914  TIP3      1158            0.0000000000
     25793      1350  TIP3      H1            -13.4846535110       -2.3537011021       29.4790177171  TIP3      1158            0.0000000000
     25794      1350  TIP3      H2            -12.4739631537       -1.2879001510       29.7223289612  TIP3      1158            0.0000000000
     25795      1351  TIP3      OH2           -11.2062313733       -1.5686837320       30.8044452376  TIP3      1159            0.0000000000
     25796      1351  TIP3      H1            -10.7880299905       -2.4137413363       30.5484097346  TIP3      1159            0.0000000000
     25797      1351  TIP3      H2            -11.1254035432       -1.5975764466       31.7772397385  TIP3      1159            0.0000000000
     25798      1352  TIP3      OH2            -7.1523182832      -15.7419161811       29.2045705958  TIP3      1160            0.0000000000
     25799      1352  TIP3      H1             -7.9835638731      -16.0306828355       29.5873889389  TIP3      1160            0.0000000000
     25800      1352  TIP3      H2             -7.2457178526      -16.0802015771       28.3022482353  TIP3      1160            0.0000000000
     25801      1353  TIP3      OH2            -2.2741514806      -17.6172001165       29.0156526185  TIP3      1161            0.0000000000
     25802      1353  TIP3      H1             -1.5949518927      -17.0238049039       28.6222319280  TIP3      1161            0.0000000000
     25803      1353  TIP3      H2             -3.1104982720      -17.2732322010       28.6281661700  TIP3      1161            0.0000000000
     25804      1354  TIP3      OH2            -0.5931261013      -16.2847464744       27.3510189456  TIP3      1162            0.0000000000
     25805      1354  TIP3      H1              0.0219316976      -16.9392040440       26.9439836531  TIP3      1162            0.0000000000
     25806      1354  TIP3      H2              0.0107787264      -15.5319360668       27.5456386876  TIP3      1162            0.0000000000
     25807      1355  TIP3      OH2           -15.2286150339      -17.4006722697       27.3612996033  TIP3      1163            0.0000000000
     25808      1355  TIP3      H1            -16.1136763103      -17.3475394539       26.9523715279  TIP3      1163            0.0000000000
     25809      1355  TIP3      H2            -14.8291115065      -18.1331715568       26.8455360284  TIP3      1163            0.0000000000
     25810      1356  TIP3      OH2           -10.9853278223      -17.2952089521       26.8539042502  TIP3      1164            0.0000000000
     25811      1356  TIP3      H1            -10.2433767216      -17.2199914333       26.2457615087  TIP3      1164            0.0000000000
     25812      1356  TIP3      H2            -10.5456175516      -17.2864344558       27.7117303031  TIP3      1164            0.0000000000
     25813      1357  TIP3      OH2            -4.7347102926      -17.0654816409       27.9582866264  TIP3      1165            0.0000000000
     25814      1357  TIP3      H1             -5.0703093757      -16.8514401100       27.0791916495  TIP3      1165            0.0000000000
     25815      1357  TIP3      H2             -5.3757433726      -17.7346974700       28.2969415475  TIP3      1165            0.0000000000
     25816      1358  TIP3      OH2            -3.5917588394      -17.4390740123       23.8485190329  TIP3      1166            0.0000000000
     25817      1358  TIP3      H1             -4.3835524271      -16.9843154618       23.5566788203  TIP3      1166            0.0000000000
     25818      1358  TIP3      H2             -3.9891352001      -18.2312062496       24.3014188455  TIP3      1166            0.0000000000
     25819      1359  TIP3      OH2            -9.0086068681      -14.7582997279       24.0554535458  TIP3      1167            0.0000000000
     25820      1359  TIP3      H1             -8.7654676866      -15.2809269921       24.8441943626  TIP3      1167            0.0000000000
     25821      1359  TIP3      H2             -9.2114067446      -13.8691910414       24.4105714886  TIP3      1167            0.0000000000
     25822      1360  TIP3      OH2            -0.9576931757       -0.4340670466       24.4484108401  TIP3      1168            0.0000000000
     25823      1360  TIP3      H1             -1.2565211609       -1.2528130296       24.0026239773  TIP3      1168            0.0000000000
     25824      1360  TIP3      H2             -1.5396009195        0.2215203191       24.0396301791  TIP3      1168            0.0000000000
     25825      1361  TIP3      OH2           -15.4581289852      -16.3805279338       36.2137410096  TIP3      1169            0.0000000000
     25826      1361  TIP3      H1            -15.9750598757      -17.1730708307       36.4483366633  TIP3      1169            0.0000000000
     25827      1361  TIP3      H2            -14.6613162492      -16.5091981685       36.7714242263  TIP3      1169            0.0000000000
     25828      1362  TIP3      OH2           -13.4330586844      -16.9774428377       38.1758085301  TIP3      1170            0.0000000000
     25829      1362  TIP3      H1            -12.6661778774      -17.5445604656       37.9670031287  TIP3      1170            0.0000000000
     25830      1362  TIP3      H2            -13.9577757524      -17.5785919590       38.7388204841  TIP3      1170            0.0000000000
     25831      1363  TIP3      OH2            -5.1974676841      -18.0279276236       38.1422291904  TIP3      1171            0.0000000000
     25832      1363  TIP3      H1             -5.0642126997      -17.8075448242       39.0841526690  TIP3      1171            0.0000000000
     25833      1363  TIP3      H2             -4.2397253475      -18.0646921572       37.8952494578  TIP3      1171            0.0000000000
     25834      1364  TIP3      OH2            -1.5450837255       -1.5240479909       36.8803165385  TIP3      1172            0.0000000000
     25835      1364  TIP3      H1             -2.1239175354       -1.5950148844       36.0875049899  TIP3      1172            0.0000000000
     25836      1364  TIP3      H2             -1.9324231536       -0.7161476002       37.2762721313  TIP3      1172            0.0000000000
     25837      1365  TIP3      OH2            13.0729440987       -7.7006327998       26.7706604318  TIP3      1173            0.0000000000
     25838      1365  TIP3      H1             12.9682580304       -6.7405681331       26.9295497282  TIP3      1173            0.0000000000
     25839      1365  TIP3      H2             12.4052417450       -7.8415868973       26.0716147419  TIP3      1173            0.0000000000
     25840      1366  TIP3      OH2            11.8419435698       -8.9000037540       30.5331907403  TIP3      1174            0.0000000000
     25841      1366  TIP3      H1             12.0708687969       -9.3878720899       31.3572353586  TIP3      1174            0.0000000000
     25842      1366  TIP3      H2             11.1891848130       -9.4948106695       30.1419397860  TIP3      1174            0.0000000000
     25843      1367  TIP3      OH2             3.7852359031       -9.0989194545       31.6030316732  TIP3      1175            0.0000000000
     25844      1367  TIP3      H1              3.6898631907       -9.8976831894       32.1576471527  TIP3      1175            0.0000000000
     25845      1367  TIP3      H2              4.5582793188       -8.6881601264       32.0243808295  TIP3      1175            0.0000000000
     25846      1368  TIP3      OH2            14.9926660844       -5.5893269041       28.9490922682  TIP3      1176            0.0000000000
     25847      1368  TIP3      H1             14.8369045467       -6.3565535245       29.5281224314  TIP3      1176            0.0000000000
     25848      1368  TIP3      H2             15.1799935781       -4.8974535747       29.6119369442  TIP3      1176            0.0000000000
     25849      1369  TIP3      OH2             5.0102456372       -4.2051241673       29.8278014632  TIP3      1177            0.0000000000
     25850      1369  TIP3      H1              4.7044751485       -5.1330095172       29.7637199448  TIP3      1177            0.0000000000
     25851      1369  TIP3      H2              5.9744608377       -4.3673853171       29.8104056497  TIP3      1177            0.0000000000
     25852      1370  TIP3      OH2             1.7312223470      -11.0484168557       25.7024337646  TIP3      1178            0.0000000000
     25853      1370  TIP3      H1              1.2754229443      -10.2109812701       25.8806614045  TIP3      1178            0.0000000000
     25854      1370  TIP3      H2              1.2162556527      -11.3424392608       24.9304904099  TIP3      1178            0.0000000000
     25855      1371  TIP3      OH2             1.6096081134       -8.8582430138       28.0913383317  TIP3      1179            0.0000000000
     25856      1371  TIP3      H1              1.9101859842       -9.7749475711       28.2956544114  TIP3      1179            0.0000000000
     25857      1371  TIP3      H2              2.4496117749       -8.4451349090       27.8264074951  TIP3      1179            0.0000000000
     25858      1372  TIP3      OH2            12.1878242429       -0.3758258319       28.4058186629  TIP3      1180            0.0000000000
     25859      1372  TIP3      H1             12.9195808188       -0.9081266325       28.0008936937  TIP3      1180            0.0000000000
     25860      1372  TIP3      H2             12.1714840586       -0.8043836590       29.2741655604  TIP3      1180            0.0000000000
     25861      1373  TIP3      OH2             9.7829874253       -6.1614018712       31.2602752197  TIP3      1181            0.0000000000
     25862      1373  TIP3      H1             10.1333930256       -6.6265847371       30.4911252953  TIP3      1181            0.0000000000
     25863      1373  TIP3      H2             10.6240934299       -5.9705309071       31.7326680225  TIP3      1181            0.0000000000
     25864      1374  TIP3      OH2            18.5107308769      -14.6323855889       30.6594858169  TIP3      1182            0.0000000000
     25865      1374  TIP3      H1             18.9428304358      -14.1829599376       31.4093092276  TIP3      1182            0.0000000000
     25866      1374  TIP3      H2             18.8061648799      -14.0680268494       29.9172807326  TIP3      1182            0.0000000000
     25867      1375  TIP3      OH2            13.8454375705      -11.6929204133       31.2082235932  TIP3      1183            0.0000000000
     25868      1375  TIP3      H1             13.5257713218      -12.6017758372       31.3240921295  TIP3      1183            0.0000000000
     25869      1375  TIP3      H2             13.8191501669      -11.6274606941       30.2251669620  TIP3      1183            0.0000000000
     25870      1376  TIP3      OH2             6.4272947518      -14.0683868775       27.9425000045  TIP3      1184            0.0000000000
     25871      1376  TIP3      H1              6.5253621587      -13.1615801171       27.5866148605  TIP3      1184            0.0000000000
     25872      1376  TIP3      H2              5.9403690926      -14.5011079858       27.2092889186  TIP3      1184            0.0000000000
     25873      1377  TIP3      OH2            13.7807104788      -13.4160474376       26.9967127139  TIP3      1185            0.0000000000
     25874      1377  TIP3      H1             14.3646310768      -13.8185393748       27.6656876181  TIP3      1185            0.0000000000
     25875      1377  TIP3      H2             14.4148917571      -12.9062172455       26.4648695591  TIP3      1185            0.0000000000
     25876      1378  TIP3      OH2             3.0136774706      -10.9536414137       29.0045542446  TIP3      1186            0.0000000000
     25877      1378  TIP3      H1              3.6730822146      -11.3025673010       29.6244957741  TIP3      1186            0.0000000000
     25878      1378  TIP3      H2              3.2513932865      -11.4300898596       28.1879839585  TIP3      1186            0.0000000000
     25879      1379  TIP3      OH2             7.5484422405       -9.6057918882       28.4144714924  TIP3      1187            0.0000000000
     25880      1379  TIP3      H1              8.4313725698       -9.9347870305       28.6671562698  TIP3      1187            0.0000000000
     25881      1379  TIP3      H2              7.1921706110      -10.3671302746       27.9006498725  TIP3      1187            0.0000000000
     25882      1380  TIP3      OH2            19.1006915047      -13.1387720375       33.7278381567  TIP3      1188            0.0000000000
     25883      1380  TIP3      H1             18.5277302975      -12.4865227545       33.2611237549  TIP3      1188            0.0000000000
     25884      1380  TIP3      H2             18.6987503473      -13.0934756620       34.6134209556  TIP3      1188            0.0000000000
     25885      1381  TIP3      OH2             5.5685963923      -14.6840466309       32.3060556785  TIP3      1189            0.0000000000
     25886      1381  TIP3      H1              5.1112729835      -14.2562905301       31.5504334877  TIP3      1189            0.0000000000
     25887      1381  TIP3      H2              4.9769735133      -14.4353109880       33.0371782478  TIP3      1189            0.0000000000
     25888      1382  TIP3      OH2            12.2628873705       -5.2063473980       25.8318098845  TIP3      1190            0.0000000000
     25889      1382  TIP3      H1             11.5086940323       -5.4796725921       25.2678095553  TIP3      1190            0.0000000000
     25890      1382  TIP3      H2             11.9279978412       -4.3522170850       26.1598406317  TIP3      1190            0.0000000000
     25891      1383  TIP3      OH2             7.4682216814       -7.1349459090       32.1261091218  TIP3      1191            0.0000000000
     25892      1383  TIP3      H1              6.8632661964       -6.4258450073       32.4296150017  TIP3      1191            0.0000000000
     25893      1383  TIP3      H2              8.2540187941       -6.6029855760       31.8543322907  TIP3      1191            0.0000000000
     25894      1384  TIP3      OH2            15.9192910019      -13.7367150425       29.0246357667  TIP3      1192            0.0000000000
     25895      1384  TIP3      H1             16.0005664630      -14.6192525864       29.4211494374  TIP3      1192            0.0000000000
     25896      1384  TIP3      H2             16.5189171963      -13.2139642534       29.5992227429  TIP3      1192            0.0000000000
     25897      1385  TIP3      OH2             4.9294573311      -12.8698123237       30.1637897317  TIP3      1193            0.0000000000
     25898      1385  TIP3      H1              5.5701008240      -12.2370655329       30.5658694855  TIP3      1193            0.0000000000
     25899      1385  TIP3      H2              5.4583883002      -13.2337838480       29.4211162250  TIP3      1193            0.0000000000
     25900      1386  TIP3      OH2             6.1923935566       -4.9286291707       33.0779772567  TIP3      1194            0.0000000000
     25901      1386  TIP3      H1              5.9753338469       -4.1585585293       32.5328723335  TIP3      1194            0.0000000000
     25902      1386  TIP3      H2              5.3579305629       -4.9957176277       33.6104364177  TIP3      1194            0.0000000000
     25903      1387  TIP3      OH2             2.2102830474       -5.5158242810       24.0204962188  TIP3      1195            0.0000000000
     25904      1387  TIP3      H1              2.0772004521       -4.8460205945       23.3217994287  TIP3      1195            0.0000000000
     25905      1387  TIP3      H2              2.3877569451       -4.9162884605       24.7943019488  TIP3      1195            0.0000000000
     25906      1388  TIP3      OH2            15.8500439781       -3.6429845687       30.7831232415  TIP3      1196            0.0000000000
     25907      1388  TIP3      H1             14.9651061766       -3.5360583292       31.2052266658  TIP3      1196            0.0000000000
     25908      1388  TIP3      H2             15.9348282461       -2.7197809313       30.4671621841  TIP3      1196            0.0000000000
     25909      1389  TIP3      OH2            16.1158512771      -14.9667195514       32.3040572017  TIP3      1197            0.0000000000
     25910      1389  TIP3      H1             15.3372432848      -14.4097099968       32.1226163497  TIP3      1197            0.0000000000
     25911      1389  TIP3      H2             16.6920830834      -14.7065611655       31.5705553107  TIP3      1197            0.0000000000
     25912      1390  TIP3      OH2             8.8957147942      -17.4358336139       29.9065517687  TIP3      1198            0.0000000000
     25913      1390  TIP3      H1              8.5836805110      -18.2961345457       29.5968921449  TIP3      1198            0.0000000000
     25914      1390  TIP3      H2              8.0187089234      -16.9944266269       30.0583568864  TIP3      1198            0.0000000000
     25915      1391  TIP3      OH2            14.1883727233       -1.9376499590       27.6640709508  TIP3      1199            0.0000000000
     25916      1391  TIP3      H1             14.3386502500       -2.7418822938       27.1393155161  TIP3      1199            0.0000000000
     25917      1391  TIP3      H2             14.9167612823       -1.3647785010       27.3460983622  TIP3      1199            0.0000000000
     25918      1392  TIP3      OH2            15.3685512091       -4.0521214364       26.0454710424  TIP3      1200            0.0000000000
     25919      1392  TIP3      H1             15.3292812555       -4.7564374624       25.3469580312  TIP3      1200            0.0000000000
     25920      1392  TIP3      H2             14.9931450482       -4.5810185901       26.7788046713  TIP3      1200            0.0000000000
     25921      1393  TIP3      OH2            16.8639871860       -5.4126468414       34.6481691111  TIP3      1201            0.0000000000
     25922      1393  TIP3      H1             17.0854663375       -6.1795230972       34.0717275872  TIP3      1201            0.0000000000
     25923      1393  TIP3      H2             17.0158879833       -4.6820076026       34.0168777115  TIP3      1201            0.0000000000
     25924      1394  TIP3      OH2            11.4752470092       -8.2471941169       24.5780885366  TIP3      1202            0.0000000000
     25925      1394  TIP3      H1             11.0068200669       -7.4223423430       24.3470904504  TIP3      1202            0.0000000000
     25926      1394  TIP3      H2             12.1352954409       -8.3331529122       23.8608818297  TIP3      1202            0.0000000000
     25927      1395  TIP3      OH2            18.9453089748       -8.9069802622       32.3423244254  TIP3      1203            0.0000000000
     25928      1395  TIP3      H1             18.2501015072       -8.2274827356       32.4364717408  TIP3      1203            0.0000000000
     25929      1395  TIP3      H2             19.5274964079       -8.4726276404       31.6856694948  TIP3      1203            0.0000000000
     25930      1396  TIP3      OH2            15.1686848641       -8.8521105311       25.4470466535  TIP3      1204            0.0000000000
     25931      1396  TIP3      H1             14.6373297358       -8.3925702731       26.1428627351  TIP3      1204            0.0000000000
     25932      1396  TIP3      H2             15.8733258720       -9.2921071817       25.9702636149  TIP3      1204            0.0000000000
     25933      1397  TIP3      OH2            14.8476308585       -9.9916503008       34.5713357019  TIP3      1205            0.0000000000
     25934      1397  TIP3      H1             14.9772605050       -9.0508951495       34.7518310835  TIP3      1205            0.0000000000
     25935      1397  TIP3      H2             14.1275726067       -9.9405977794       33.9186576578  TIP3      1205            0.0000000000
     25936      1398  TIP3      OH2             6.6594666662       -7.5082918513       27.2199935978  TIP3      1206            0.0000000000
     25937      1398  TIP3      H1              6.3780329201       -7.7698065133       26.3271058360  TIP3      1206            0.0000000000
     25938      1398  TIP3      H2              7.0058335246       -8.3557626482       27.5830204560  TIP3      1206            0.0000000000
     25939      1399  TIP3      OH2             7.8986577353       -4.4322427981       29.8677446704  TIP3      1207            0.0000000000
     25940      1399  TIP3      H1              8.0879690267       -4.5488659960       28.9224752756  TIP3      1207            0.0000000000
     25941      1399  TIP3      H2              8.4933798470       -5.0697561039       30.3105748114  TIP3      1207            0.0000000000
     25942      1400  TIP3      OH2             6.6309008691       -9.3155611083       30.9338416795  TIP3      1208            0.0000000000
     25943      1400  TIP3      H1              6.8785290650       -9.2014728695       29.9888030577  TIP3      1208            0.0000000000
     25944      1400  TIP3      H2              7.0237764252       -8.5244163250       31.3716245405  TIP3      1208            0.0000000000
     25945      1401  TIP3      OH2            13.4687686860       -3.2427261039       31.6981635997  TIP3      1209            0.0000000000
     25946      1401  TIP3      H1             13.0843204444       -2.6665642077       32.3803438259  TIP3      1209            0.0000000000
     25947      1401  TIP3      H2             13.2291024667       -4.1360985617       32.0173465853  TIP3      1209            0.0000000000
     25948      1402  TIP3      OH2             7.8873730970       -4.5119931857       35.2223715696  TIP3      1210            0.0000000000
     25949      1402  TIP3      H1              7.1595459917       -4.0044443363       35.6443657375  TIP3      1210            0.0000000000
     25950      1402  TIP3      H2              7.4530958013       -4.7078029712       34.3623533372  TIP3      1210            0.0000000000
     25951      1403  TIP3      OH2            13.7305861516       -9.0549428705       23.2309225433  TIP3      1211            0.0000000000
     25952      1403  TIP3      H1             14.3540710370       -8.9055552912       23.9793954843  TIP3      1211            0.0000000000
     25953      1403  TIP3      H2             14.1270072340       -8.5422413080       22.4882784219  TIP3      1211            0.0000000000
     25954      1404  TIP3      OH2             4.8434072343       -8.3157779997       34.1508161903  TIP3      1212            0.0000000000
     25955      1404  TIP3      H1              5.0956034715       -7.5334374250       34.6601092633  TIP3      1212            0.0000000000
     25956      1404  TIP3      H2              4.2048092861       -8.6922611613       34.7799249282  TIP3      1212            0.0000000000
     25957      1405  TIP3      OH2            11.3808771248       -2.3611282830       26.1480426321  TIP3      1213            0.0000000000
     25958      1405  TIP3      H1             11.7229834877       -2.0548452183       26.9984646414  TIP3      1213            0.0000000000
     25959      1405  TIP3      H2             10.8145422034       -1.6056873247       25.9286142378  TIP3      1213            0.0000000000
     25960      1406  TIP3      OH2             6.0367045492       -2.8462853803       36.3222006844  TIP3      1214            0.0000000000
     25961      1406  TIP3      H1              5.9549053346       -2.3901057587       35.4516658406  TIP3      1214            0.0000000000
     25962      1406  TIP3      H2              5.1029483147       -3.1009937262       36.4804227627  TIP3      1214            0.0000000000
     25963      1407  TIP3      OH2             5.3728206639       -8.8065526958       24.7917212004  TIP3      1215            0.0000000000
     25964      1407  TIP3      H1              4.9111189485       -8.0111409077       24.4524871846  TIP3      1215            0.0000000000
     25965      1407  TIP3      H2              4.6846973185       -9.4790006343       24.6816336564  TIP3      1215            0.0000000000
     25966      1408  TIP3      OH2             1.8992586675       -6.2370356397       33.5911827373  TIP3      1216            0.0000000000
     25967      1408  TIP3      H1              1.4707674517       -6.3642496901       32.7298766299  TIP3      1216            0.0000000000
     25968      1408  TIP3      H2              2.2262269972       -7.1468398925       33.7514140084  TIP3      1216            0.0000000000
     25969      1409  TIP3      OH2             1.6963112636       -3.6372843943       30.2433350170  TIP3      1217            0.0000000000
     25970      1409  TIP3      H1              2.6473130444       -3.8087349146       30.2173798747  TIP3      1217            0.0000000000
     25971      1409  TIP3      H2              1.6764747012       -2.9103947804       30.8841779246  TIP3      1217            0.0000000000
     25972      1410  TIP3      OH2            19.5322639204       -2.8354991187       36.2739121074  TIP3      1218            0.0000000000
     25973      1410  TIP3      H1             19.4421044345       -3.7730896713       36.5159358201  TIP3      1218            0.0000000000
     25974      1410  TIP3      H2             18.6610918981       -2.5261939791       36.6343480797  TIP3      1218            0.0000000000
     25975      1411  TIP3      OH2            10.5554031482       -3.5051502974       35.1751308031  TIP3      1219            0.0000000000
     25976      1411  TIP3      H1             10.7608148485       -2.8446421505       35.8613458347  TIP3      1219            0.0000000000
     25977      1411  TIP3      H2              9.6148920330       -3.7060199335       35.3466687666  TIP3      1219            0.0000000000
     25978      1412  TIP3      OH2            10.8996543579        0.3718679521       24.5353389088  TIP3      1220            0.0000000000
     25979      1412  TIP3      H1             11.1804591690        0.7325899291       23.6793035665  TIP3      1220            0.0000000000
     25980      1412  TIP3      H2             10.9379005811        1.1820196024       25.0868697658  TIP3      1220            0.0000000000
     25981      1413  TIP3      OH2             4.5483179429       -0.8047265296       26.8004872835  TIP3      1221            0.0000000000
     25982      1413  TIP3      H1              4.8835738040       -1.0409423898       27.6965214244  TIP3      1221            0.0000000000
     25983      1413  TIP3      H2              3.6167588808       -1.0585464732       26.8852806510  TIP3      1221            0.0000000000
     25984      1414  TIP3      OH2            16.5659595279      -11.4328042674       36.5315639041  TIP3      1222            0.0000000000
     25985      1414  TIP3      H1             15.9861415900      -11.0480585311       35.8355024229  TIP3      1222            0.0000000000
     25986      1414  TIP3      H2             16.5629999304      -12.3676541687       36.2538032781  TIP3      1222            0.0000000000
     25987      1415  TIP3      OH2             4.0149324429       -4.8945779197       34.5470929008  TIP3      1223            0.0000000000
     25988      1415  TIP3      H1              4.0471794826       -5.2045574242       35.4698416895  TIP3      1223            0.0000000000
     25989      1415  TIP3      H2              3.1728113155       -5.2842224826       34.2163088393  TIP3      1223            0.0000000000
     25990      1416  TIP3      OH2             6.6373397152      -16.3456721899       30.5712218435  TIP3      1224            0.0000000000
     25991      1416  TIP3      H1              5.7349030248      -16.3488232348       30.2121252251  TIP3      1224            0.0000000000
     25992      1416  TIP3      H2              6.5003865096      -15.7853652763       31.3656242218  TIP3      1224            0.0000000000
     25993      1417  TIP3      OH2            11.3796340374      -16.8253915072       33.7984572196  TIP3      1225            0.0000000000
     25994      1417  TIP3      H1             11.7719324918      -17.2628134988       34.5891397889  TIP3      1225            0.0000000000
     25995      1417  TIP3      H2             10.4166270975      -16.9047508839       33.9646462506  TIP3      1225            0.0000000000
     25996      1418  TIP3      OH2            14.2301998534      -12.8216249649       35.0517507928  TIP3      1226            0.0000000000
     25997      1418  TIP3      H1             13.6110770851      -13.1756019952       35.7388890807  TIP3      1226            0.0000000000
     25998      1418  TIP3      H2             13.8504111951      -11.9533737770       34.8578032448  TIP3      1226            0.0000000000
     25999      1419  TIP3      OH2            14.6543403623       -7.8454576180       20.9444346631  TIP3      1227            0.0000000000
     26000      1419  TIP3      H1             13.9011584751       -7.7327854389       20.3363283664  TIP3      1227            0.0000000000
     26001      1419  TIP3      H2             15.3142404351       -8.2322391131       20.3356933355  TIP3      1227            0.0000000000
     26002      1420  TIP3      OH2             6.7897799273      -11.7896473145       31.7957318648  TIP3      1228            0.0000000000
     26003      1420  TIP3      H1              5.9626114186      -11.7162396468       32.3133565837  TIP3      1228            0.0000000000
     26004      1420  TIP3      H2              6.8312105020      -10.8669384246       31.4435773097  TIP3      1228            0.0000000000
     26005      1421  TIP3      OH2             6.5032692561      -11.6056567567       26.8938683612  TIP3      1229            0.0000000000
     26006      1421  TIP3      H1              5.6025186368      -11.7147853690       26.5022557449  TIP3      1229            0.0000000000
     26007      1421  TIP3      H2              7.0892284775      -11.4493016548       26.1422728058  TIP3      1229            0.0000000000
     26008      1422  TIP3      OH2            12.2442363740      -11.2455837915       25.1067797876  TIP3      1230            0.0000000000
     26009      1422  TIP3      H1             12.2634283855      -10.3111708608       24.8261170537  TIP3      1230            0.0000000000
     26010      1422  TIP3      H2             13.0385518825      -11.6067544788       24.6805736111  TIP3      1230            0.0000000000
     26011      1423  TIP3      OH2            11.2150184721      -10.4296823028       36.9981285445  TIP3      1231            0.0000000000
     26012      1423  TIP3      H1             10.7988144286      -11.2473285607       37.3341151384  TIP3      1231            0.0000000000
     26013      1423  TIP3      H2             12.0524482773      -10.4557588688       37.5038885275  TIP3      1231            0.0000000000
     26014      1424  TIP3      OH2            13.4220093816      -11.0527184442       28.6065054681  TIP3      1232            0.0000000000
     26015      1424  TIP3      H1             13.2237260525      -10.2316693526       28.1235519540  TIP3      1232            0.0000000000
     26016      1424  TIP3      H2             13.2567853757      -11.7320968286       27.9148146904  TIP3      1232            0.0000000000
     26017      1425  TIP3      OH2             4.1444737620      -11.5270330068       32.9700044273  TIP3      1233            0.0000000000
     26018      1425  TIP3      H1              4.5271631058      -11.1316616350       33.7718860962  TIP3      1233            0.0000000000
     26019      1425  TIP3      H2              3.8240911968      -12.3794964876       33.3406937323  TIP3      1233            0.0000000000
     26020      1426  TIP3      OH2             1.2320184902      -14.1507671688       27.7897038741  TIP3      1234            0.0000000000
     26021      1426  TIP3      H1              1.9014272592      -14.2342052859       28.4794370188  TIP3      1234            0.0000000000
     26022      1426  TIP3      H2              1.7178608013      -14.2199314663       26.9583017244  TIP3      1234            0.0000000000
     26023      1427  TIP3      OH2             2.0816994224      -13.4647828311       22.9292585136  TIP3      1235            0.0000000000
     26024      1427  TIP3      H1              2.7337811033      -13.0327558617       22.3527353711  TIP3      1235            0.0000000000
     26025      1427  TIP3      H2              1.4770893672      -12.7195361929       23.0747013716  TIP3      1235            0.0000000000
     26026      1428  TIP3      OH2            12.4637865362      -10.0183440549       32.8267390056  TIP3      1236            0.0000000000
     26027      1428  TIP3      H1             12.9809625453      -10.7529941816       32.4325292869  TIP3      1236            0.0000000000
     26028      1428  TIP3      H2             11.7620621805      -10.4687370136       33.3613148665  TIP3      1236            0.0000000000
     26029      1429  TIP3      OH2             9.5360571870      -13.7646261982       27.5427808546  TIP3      1237            0.0000000000
     26030      1429  TIP3      H1              8.6337472641      -14.0741929081       27.7420322051  TIP3      1237            0.0000000000
     26031      1429  TIP3      H2             10.0738633242      -14.3736884581       28.1022745175  TIP3      1237            0.0000000000
     26032      1430  TIP3      OH2             3.9677804076      -12.4305108304       26.5554719412  TIP3      1238            0.0000000000
     26033      1430  TIP3      H1              3.1423547955      -12.0976473232       26.1330286669  TIP3      1238            0.0000000000
     26034      1430  TIP3      H2              4.0486916938      -13.3399567769       26.2087855721  TIP3      1238            0.0000000000
     26035      1431  TIP3      OH2            13.7507347833      -14.6175909706       30.8913392083  TIP3      1239            0.0000000000
     26036      1431  TIP3      H1             13.0318160476      -14.9063249392       31.4773757586  TIP3      1239            0.0000000000
     26037      1431  TIP3      H2             13.5806917143      -15.0951158061       30.0549762112  TIP3      1239            0.0000000000
     26038      1432  TIP3      OH2            16.6379586069        1.0600895413       37.5480041134  TIP3      1240            0.0000000000
     26039      1432  TIP3      H1             17.0275655755        1.2717715667       36.6786119523  TIP3      1240            0.0000000000
     26040      1432  TIP3      H2             17.4317462843        1.0589684280       38.1121627412  TIP3      1240            0.0000000000
     26041      1433  TIP3      OH2             4.5058991381       -6.8208607570       36.8446165100  TIP3      1241            0.0000000000
     26042      1433  TIP3      H1              5.1533082538       -6.4557411187       37.4817000787  TIP3      1241            0.0000000000
     26043      1433  TIP3      H2              3.6744187602       -6.7820712537       37.3585486814  TIP3      1241            0.0000000000
     26044      1434  TIP3      OH2             9.9261179481      -10.8887970817       29.2548088679  TIP3      1242            0.0000000000
     26045      1434  TIP3      H1             10.7786328583      -11.2755282329       28.9982016252  TIP3      1242            0.0000000000
     26046      1434  TIP3      H2              9.4817070926      -11.6472718593       29.6660041448  TIP3      1242            0.0000000000
     26047      1435  TIP3      OH2             5.1036026103      -15.2976094514       25.9485141468  TIP3      1243            0.0000000000
     26048      1435  TIP3      H1              4.3756280586      -15.7722965701       26.4013012042  TIP3      1243            0.0000000000
     26049      1435  TIP3      H2              5.7289959891      -16.0255263289       25.8122870128  TIP3      1243            0.0000000000
     26050      1436  TIP3      OH2             9.2363556158      -12.9039879764       31.9730927645  TIP3      1244            0.0000000000
     26051      1436  TIP3      H1              8.4352497055      -12.3566200542       31.8226017209  TIP3      1244            0.0000000000
     26052      1436  TIP3      H2              9.7743086442      -12.3331903715       32.5453826548  TIP3      1244            0.0000000000
     26053      1437  TIP3      OH2            10.1216616675       -5.7741352894       24.2766885185  TIP3      1245            0.0000000000
     26054      1437  TIP3      H1              9.6356527914       -6.2007264556       23.5547273986  TIP3      1245            0.0000000000
     26055      1437  TIP3      H2              9.4105008371       -5.6548802606       24.9566752329  TIP3      1245            0.0000000000
     26056      1438  TIP3      OH2            17.1443247156       -6.9410588354       32.6061940659  TIP3      1246            0.0000000000
     26057      1438  TIP3      H1             17.6086859136       -6.3648871350       31.9459062726  TIP3      1246            0.0000000000
     26058      1438  TIP3      H2             16.2829466248       -7.0505508876       32.1651595020  TIP3      1246            0.0000000000
     26059      1439  TIP3      OH2            13.1131325132      -13.2179265553       21.6367839298  TIP3      1247            0.0000000000
     26060      1439  TIP3      H1             12.8344459731      -12.6014037052       20.9018312194  TIP3      1247            0.0000000000
     26061      1439  TIP3      H2             13.7825269321      -12.6695459514       22.0788640514  TIP3      1247            0.0000000000
     26062      1440  TIP3      OH2            10.5935447759       -6.3331762476       34.6291486995  TIP3      1248            0.0000000000
     26063      1440  TIP3      H1             10.8347307688       -6.4965668137       35.5471534601  TIP3      1248            0.0000000000
     26064      1440  TIP3      H2             10.4643010512       -5.3663351755       34.6692338517  TIP3      1248            0.0000000000
     26065      1441  TIP3      OH2            14.8138807601      -11.7731572194       23.3824377353  TIP3      1249            0.0000000000
     26066      1441  TIP3      H1             15.3410868382      -11.7493389298       24.1939403815  TIP3      1249            0.0000000000
     26067      1441  TIP3      H2             14.5602737805      -10.8444086330       23.2515782585  TIP3      1249            0.0000000000
     26068      1442  TIP3      OH2             4.7783241053       -7.0321255400       29.2297871951  TIP3      1250            0.0000000000
     26069      1442  TIP3      H1              5.4789308279       -7.1226268262       28.5472646535  TIP3      1250            0.0000000000
     26070      1442  TIP3      H2              4.9820860895       -7.7663980792       29.8289916995  TIP3      1250            0.0000000000
     26071      1443  TIP3      OH2             1.7387274897       -8.9045735493       34.9250193331  TIP3      1251            0.0000000000
     26072      1443  TIP3      H1              1.6274154867       -9.5245352019       35.6740399443  TIP3      1251            0.0000000000
     26073      1443  TIP3      H2              1.2450494628       -9.3443574341       34.2127613006  TIP3      1251            0.0000000000
     26074      1444  TIP3      OH2             8.6515257363       -9.1151358461       36.5887476425  TIP3      1252            0.0000000000
     26075      1444  TIP3      H1              8.2527302141       -9.7974933101       36.0383598090  TIP3      1252            0.0000000000
     26076      1444  TIP3      H2              9.5741961316       -9.4385917404       36.6202064219  TIP3      1252            0.0000000000
     26077      1445  TIP3      OH2            13.7182384022       -3.7894803879       35.1417189485  TIP3      1253            0.0000000000
     26078      1445  TIP3      H1             12.9579761879       -3.5397496404       34.6004918927  TIP3      1253            0.0000000000
     26079      1445  TIP3      H2             13.4373659220       -3.3899822866       35.9914828600  TIP3      1253            0.0000000000
     26080      1446  TIP3      OH2            18.4299295960      -11.2842898799       23.6057978239  TIP3      1254            0.0000000000
     26081      1446  TIP3      H1             18.4436938181      -11.7156359183       22.7399105915  TIP3      1254            0.0000000000
     26082      1446  TIP3      H2             18.5897447342      -10.3505918712       23.3681138556  TIP3      1254            0.0000000000
     26083      1447  TIP3      OH2            19.3076209750       -5.7372076529       36.1355184160  TIP3      1255            0.0000000000
     26084      1447  TIP3      H1             18.4168551946       -5.4703109527       35.8042894842  TIP3      1255            0.0000000000
     26085      1447  TIP3      H2             19.8235133491       -5.7965506186       35.2957708169  TIP3      1255            0.0000000000
     26086      1448  TIP3      OH2            17.4854469508       -3.2520045251       23.6091304695  TIP3      1256            0.0000000000
     26087      1448  TIP3      H1             16.8727786140       -3.8911000574       24.0050620273  TIP3      1256            0.0000000000
     26088      1448  TIP3      H2             17.4574697571       -3.4838358116       22.6700951609  TIP3      1256            0.0000000000
     26089      1449  TIP3      OH2            14.8343197287       -7.8929689447       30.6499713482  TIP3      1257            0.0000000000
     26090      1449  TIP3      H1             13.9169052262       -8.1356502239       30.4280205235  TIP3      1257            0.0000000000
     26091      1449  TIP3      H2             15.3660149125       -8.5194265984       30.1078291918  TIP3      1257            0.0000000000
     26092      1450  TIP3      OH2             7.0247787898       -3.4894714299       27.0131957231  TIP3      1258            0.0000000000
     26093      1450  TIP3      H1              7.1536587573       -2.5762987771       26.6724744056  TIP3      1258            0.0000000000
     26094      1450  TIP3      H2              6.0953047738       -3.6516477062       26.7906042256  TIP3      1258            0.0000000000
     26095      1451  TIP3      OH2             3.4294675397       -8.5605448825       21.0253248879  TIP3      1259            0.0000000000
     26096      1451  TIP3      H1              3.7400152546       -8.0150963155       21.7697520901  TIP3      1259            0.0000000000
     26097      1451  TIP3      H2              2.4813784314       -8.6944069276       21.2198141259  TIP3      1259            0.0000000000
     26098      1452  TIP3      OH2             8.6145490211       -5.7920457676       26.5015039879  TIP3      1260            0.0000000000
     26099      1452  TIP3      H1              8.0847198579       -4.9906345219       26.7020990091  TIP3      1260            0.0000000000
     26100      1452  TIP3      H2              8.0784387530       -6.4879627554       26.9340529511  TIP3      1260            0.0000000000
     26101      1453  TIP3      OH2             8.9951823484       -1.7539542617       33.3274666238  TIP3      1261            0.0000000000
     26102      1453  TIP3      H1              9.6647179530       -1.1219842608       33.0365245074  TIP3      1261            0.0000000000
     26103      1453  TIP3      H2              9.4835206096       -2.1814614981       34.0537016241  TIP3      1261            0.0000000000
     26104      1454  TIP3      OH2             7.1969238629       -0.8295635417       25.9015742594  TIP3      1262            0.0000000000
     26105      1454  TIP3      H1              6.2839708157       -0.6410822423       26.2051552497  TIP3      1262            0.0000000000
     26106      1454  TIP3      H2              7.6382250836        0.0099905228       26.1710973789  TIP3      1262            0.0000000000
     26107      1455  TIP3      OH2            12.2056046351       -5.9022141052       32.4154784116  TIP3      1263            0.0000000000
     26108      1455  TIP3      H1             11.8215377200       -6.1647261764       33.2865759715  TIP3      1263            0.0000000000
     26109      1455  TIP3      H2             12.5183601560       -6.7530390728       32.0499478898  TIP3      1263            0.0000000000
     26110      1456  TIP3      OH2            15.5551252989       -1.2620893959       34.9555728605  TIP3      1264            0.0000000000
     26111      1456  TIP3      H1             14.7202197246       -1.7582227824       34.8668871420  TIP3      1264            0.0000000000
     26112      1456  TIP3      H2             15.5410383848       -0.6732265729       34.1611820581  TIP3      1264            0.0000000000
     26113      1457  TIP3      OH2             3.8110736239      -13.7841476735       34.5217335049  TIP3      1265            0.0000000000
     26114      1457  TIP3      H1              3.0519919944      -13.5143369117       35.0733044703  TIP3      1265            0.0000000000
     26115      1457  TIP3      H2              3.8987656376      -14.6990837056       34.8304642735  TIP3      1265            0.0000000000
     26116      1458  TIP3      OH2            15.7461389626       -6.0340141830       24.2539253706  TIP3      1266            0.0000000000
     26117      1458  TIP3      H1             15.4145934808       -6.9394300327       24.3865034574  TIP3      1266            0.0000000000
     26118      1458  TIP3      H2             16.6172120229       -6.2556274596       23.8666006512  TIP3      1266            0.0000000000
     26119      1459  TIP3      OH2             3.0585513630       -2.2656538402       32.5483465195  TIP3      1267            0.0000000000
     26120      1459  TIP3      H1              3.8059882094       -2.8006960796       32.8696942933  TIP3      1267            0.0000000000
     26121      1459  TIP3      H2              2.8826647850       -1.6973023172       33.3122861700  TIP3      1267            0.0000000000
     26122      1460  TIP3      OH2             7.5322051515       -3.9285818031       22.2613203483  TIP3      1268            0.0000000000
     26123      1460  TIP3      H1              8.4139153780       -3.8799171556       21.8312116792  TIP3      1268            0.0000000000
     26124      1460  TIP3      H2              7.4267803148       -3.0263408975       22.6444604912  TIP3      1268            0.0000000000
     26125      1461  TIP3      OH2             4.3159653804       -6.8641128175       23.1214162811  TIP3      1269            0.0000000000
     26126      1461  TIP3      H1              3.5884537813       -6.4465472348       23.6406157608  TIP3      1269            0.0000000000
     26127      1461  TIP3      H2              4.5847500288       -6.0759394570       22.6085288799  TIP3      1269            0.0000000000
     26128      1462  TIP3      OH2            12.0224257223      -14.0764351332       33.6601550164  TIP3      1270            0.0000000000
     26129      1462  TIP3      H1             12.8340326543      -14.0045105089       34.1815802361  TIP3      1270            0.0000000000
     26130      1462  TIP3      H2             11.7825144369      -15.0126600232       33.7975628762  TIP3      1270            0.0000000000
     26131      1463  TIP3      OH2            13.1288045159      -14.8354696050       24.4222738395  TIP3      1271            0.0000000000
     26132      1463  TIP3      H1             12.9704617233      -14.4291884210       23.5503981205  TIP3      1271            0.0000000000
     26133      1463  TIP3      H2             13.5542839261      -14.1222040704       24.9035991991  TIP3      1271            0.0000000000
     26134      1464  TIP3      OH2             9.8794448580      -12.7965140181       24.9748357934  TIP3      1272            0.0000000000
     26135      1464  TIP3      H1             10.7329814157      -12.3179945225       25.0751189550  TIP3      1272            0.0000000000
     26136      1464  TIP3      H2              9.7486204435      -13.1651178035       25.8727406005  TIP3      1272            0.0000000000
     26137      1465  TIP3      OH2            11.0205166182      -11.5708324604       34.4056554611  TIP3      1273            0.0000000000
     26138      1465  TIP3      H1             11.0794701089      -11.3513651255       35.3647714662  TIP3      1273            0.0000000000
     26139      1465  TIP3      H2             11.3250120235      -12.5022412662       34.3424151252  TIP3      1273            0.0000000000
     26140      1466  TIP3      OH2            10.8453861316      -15.5870953998       25.7733658717  TIP3      1274            0.0000000000
     26141      1466  TIP3      H1             10.5497885235      -15.0987065432       26.5604577974  TIP3      1274            0.0000000000
     26142      1466  TIP3      H2             11.7491026756      -15.2141340666       25.6532843380  TIP3      1274            0.0000000000
     26143      1467  TIP3      OH2             7.0413547737       -1.2681944385       23.1707320328  TIP3      1275            0.0000000000
     26144      1467  TIP3      H1              7.6887561299       -0.6255604474       22.8141996740  TIP3      1275            0.0000000000
     26145      1467  TIP3      H2              7.1265721364       -1.0712704779       24.1288467205  TIP3      1275            0.0000000000
     26146      1468  TIP3      OH2             6.6466758714      -14.2647620590       22.2897470681  TIP3      1276            0.0000000000
     26147      1468  TIP3      H1              6.2446177936      -14.0951143937       23.1468148882  TIP3      1276            0.0000000000
     26148      1468  TIP3      H2              7.3255217009      -14.9248727498       22.5100509166  TIP3      1276            0.0000000000
     26149      1469  TIP3      OH2            16.7628171351      -13.7914605481       35.0904031832  TIP3      1277            0.0000000000
     26150      1469  TIP3      H1             15.8047838855      -13.6149690288       35.2376618012  TIP3      1277            0.0000000000
     26151      1469  TIP3      H2             16.7799689516      -13.8602530722       34.1233828430  TIP3      1277            0.0000000000
     26152      1470  TIP3      OH2            15.9490800233       -9.9156946512       28.9786702851  TIP3      1278            0.0000000000
     26153      1470  TIP3      H1             15.1766342809      -10.5099715397       28.9970450821  TIP3      1278            0.0000000000
     26154      1470  TIP3      H2             16.5820631128      -10.4261377445       29.5248046813  TIP3      1278            0.0000000000
     26155      1471  TIP3      OH2             4.8973656683       -4.3964373781       22.0047937418  TIP3      1279            0.0000000000
     26156      1471  TIP3      H1              5.0224623943       -3.6371236691       22.5918861516  TIP3      1279            0.0000000000
     26157      1471  TIP3      H2              5.8578309333       -4.5654831304       21.8834939975  TIP3      1279            0.0000000000
     26158      1472  TIP3      OH2             3.2049983781      -11.3030928671       21.4890983653  TIP3      1280            0.0000000000
     26159      1472  TIP3      H1              3.5510795448      -10.4077655401       21.3218198060  TIP3      1280            0.0000000000
     26160      1472  TIP3      H2              2.7631605588      -11.4876603600       20.6510418134  TIP3      1280            0.0000000000
     26161      1473  TIP3      OH2            16.4123368143       -0.9889237783       30.5719781266  TIP3      1281            0.0000000000
     26162      1473  TIP3      H1             16.3269021413       -0.2825773770       29.8989544488  TIP3      1281            0.0000000000
     26163      1473  TIP3      H2             17.3901560612       -0.9888845411       30.6399343653  TIP3      1281            0.0000000000
     26164      1474  TIP3      OH2             3.9348013109      -16.8058081104       30.0027154476  TIP3      1282            0.0000000000
     26165      1474  TIP3      H1              3.9389013189      -16.9723444930       29.0334606207  TIP3      1282            0.0000000000
     26166      1474  TIP3      H2              3.6639454083      -17.7003783106       30.3057332809  TIP3      1282            0.0000000000
     26167      1475  TIP3      OH2             2.5135073743       -3.4907358237       25.5678180161  TIP3      1283            0.0000000000
     26168      1475  TIP3      H1              1.9792330651       -3.2316523312       26.3278259334  TIP3      1283            0.0000000000
     26169      1475  TIP3      H2              2.6616752239       -2.6589338435       25.0690534870  TIP3      1283            0.0000000000
     26170      1476  TIP3      OH2             2.0525499598        0.0891447975       37.2573533104  TIP3      1284            0.0000000000
     26171      1476  TIP3      H1              2.6795350346        0.0489250102       38.0161173306  TIP3      1284            0.0000000000
     26172      1476  TIP3      H2              1.7256280355       -0.8237396648       37.2595491013  TIP3      1284            0.0000000000
     26173      1477  TIP3      OH2             7.0257695976       -1.6406104246       38.9447263196  TIP3      1285            0.0000000000
     26174      1477  TIP3      H1              7.9326984458       -1.9767985511       39.0319231187  TIP3      1285            0.0000000000
     26175      1477  TIP3      H2              6.6952641894       -2.1732272306       38.1981891003  TIP3      1285            0.0000000000
     26176      1478  TIP3      OH2            13.0600627609       -2.5707967398       37.5858744228  TIP3      1286            0.0000000000
     26177      1478  TIP3      H1             12.8553684478       -3.3802651383       38.1124903063  TIP3      1286            0.0000000000
     26178      1478  TIP3      H2             13.9996340524       -2.4497570845       37.8601748993  TIP3      1286            0.0000000000
     26179      1479  TIP3      OH2             1.8940211657       -6.5539742963       38.0409256556  TIP3      1287            0.0000000000
     26180      1479  TIP3      H1              1.3555894715       -7.3588470095       38.0887502903  TIP3      1287            0.0000000000
     26181      1479  TIP3      H2              1.4898448482       -6.0944835051       37.2703112122  TIP3      1287            0.0000000000
     26182      1480  TIP3      OH2             8.7106195475       -6.4505290473       37.0913498132  TIP3      1288            0.0000000000
     26183      1480  TIP3      H1              8.4518810056       -5.8505562680       36.3555393027  TIP3      1288            0.0000000000
     26184      1480  TIP3      H2              8.7749559491       -7.3322362547       36.6417626999  TIP3      1288            0.0000000000
     26185      1481  TIP3      OH2            14.3793961274       -6.5361201286       35.1031314951  TIP3      1289            0.0000000000
     26186      1481  TIP3      H1             15.2331334174       -6.0461556478       35.1010316249  TIP3      1289            0.0000000000
     26187      1481  TIP3      H2             13.7950022625       -5.7610171096       35.1652981478  TIP3      1289            0.0000000000
     26188      1482  TIP3      OH2             3.1490367955       -9.6942181932       37.5725245020  TIP3      1290            0.0000000000
     26189      1482  TIP3      H1              3.8360576213      -10.2594071195       37.9520987571  TIP3      1290            0.0000000000
     26190      1482  TIP3      H2              3.2575940302       -8.8808908851       38.1036142050  TIP3      1290            0.0000000000
     26191      1483  TIP3      OH2             7.6281557944       -7.9228432023       23.0468974380  TIP3      1291            0.0000000000
     26192      1483  TIP3      H1              6.9238992305       -8.1616612458       23.6692410808  TIP3      1291            0.0000000000
     26193      1483  TIP3      H2              7.1193189134       -7.7029156508       22.2561734952  TIP3      1291            0.0000000000
     26194      1484  TIP3      OH2             6.6674990363      -10.2767670687       34.3139148994  TIP3      1292            0.0000000000
     26195      1484  TIP3      H1              6.1504773102       -9.4534600692       34.2002876411  TIP3      1292            0.0000000000
     26196      1484  TIP3      H2              7.5092562532       -9.9639025047       33.9214575059  TIP3      1292            0.0000000000
     26197      1485  TIP3      OH2            12.1688627619       -7.4594151337       38.2372807107  TIP3      1293            0.0000000000
     26198      1485  TIP3      H1             12.7741816935       -7.9814741581       37.6768630757  TIP3      1293            0.0000000000
     26199      1485  TIP3      H2             11.8593448302       -8.1356287800       38.8651030315  TIP3      1293            0.0000000000
     26200      1486  TIP3      OH2             7.9038907216      -12.4365125939       35.5756822169  TIP3      1294            0.0000000000
     26201      1486  TIP3      H1              7.9960383922      -13.1004648137       34.8550217854  TIP3      1294            0.0000000000
     26202      1486  TIP3      H2              7.6528866383      -11.6476566593       35.0534345837  TIP3      1294            0.0000000000
     26203      1487  TIP3      OH2             7.8979473157      -14.4784021668       33.6082838368  TIP3      1295            0.0000000000
     26204      1487  TIP3      H1              8.4290027419      -14.0920549084       32.8743774263  TIP3      1295            0.0000000000
     26205      1487  TIP3      H2              6.9953583605      -14.4152510403       33.2259985312  TIP3      1295            0.0000000000
     26206      1488  TIP3      OH2             9.0686152088       -8.8058928881       33.4396275766  TIP3      1296            0.0000000000
     26207      1488  TIP3      H1              9.8774278382       -8.3482942766       33.1761259212  TIP3      1296            0.0000000000
     26208      1488  TIP3      H2              8.4143266424       -8.1306147953       33.1572893405  TIP3      1296            0.0000000000
     26209      1489  TIP3      OH2            13.2044230531      -11.0627323590       38.7753914014  TIP3      1297            0.0000000000
     26210      1489  TIP3      H1             13.2731823408      -11.9164972299       39.2607511817  TIP3      1297            0.0000000000
     26211      1489  TIP3      H2             14.1362537971      -10.8060653056       38.7274786113  TIP3      1297            0.0000000000
     26212      1490  TIP3      OH2            15.0335131040       -8.1320914498       37.1925504958  TIP3      1298            0.0000000000
     26213      1490  TIP3      H1             14.6989148009       -7.6866335114       36.3856454135  TIP3      1298            0.0000000000
     26214      1490  TIP3      H2             15.9694218903       -8.2679254769       36.9402036074  TIP3      1298            0.0000000000
     26215      1491  TIP3      OH2             6.0689260476      -11.9622977744       37.7392336652  TIP3      1299            0.0000000000
     26216      1491  TIP3      H1              5.2742797587      -12.4342326592       37.4104080499  TIP3      1299            0.0000000000
     26217      1491  TIP3      H2              6.7004197487      -12.1470830813       37.0133056852  TIP3      1299            0.0000000000
     26218      1492  TIP3      OH2             8.6839501272      -17.0462473662       33.6691131743  TIP3      1300            0.0000000000
     26219      1492  TIP3      H1              8.4338745562      -16.0990330985       33.7558324187  TIP3      1300            0.0000000000
     26220      1492  TIP3      H2              7.8819294723      -17.3928480546       33.2578689483  TIP3      1300            0.0000000000
     26221      1493  TIP3      OH2             9.7260438190      -12.8284987076       37.8104204432  TIP3      1301            0.0000000000
     26222      1493  TIP3      H1              9.0461231202      -13.0175246122       38.4883826393  TIP3      1301            0.0000000000
     26223      1493  TIP3      H2              9.1640699097      -12.9082950878       37.0123066039  TIP3      1301            0.0000000000
     26224      1494  TIP3      OH2            12.3758616044      -13.5038831455       36.7530486917  TIP3      1302            0.0000000000
     26225      1494  TIP3      H1             11.4393620931      -13.6309229438       36.9527925352  TIP3      1302            0.0000000000
     26226      1494  TIP3      H2             12.7528096070      -14.1112689698       37.4372404707  TIP3      1302            0.0000000000
     26227      1495  TIP3      OH2            13.4635434667      -15.2593743302       38.3718045131  TIP3      1303            0.0000000000
     26228      1495  TIP3      H1             13.9720438952      -16.0837240977       38.4722108567  TIP3      1303            0.0000000000
     26229      1495  TIP3      H2             13.6753713043      -14.7370431786       39.1731101570  TIP3      1303            0.0000000000
     26230      1496  TIP3      OH2             3.8860580344      -13.6290274491       37.7412869877  TIP3      1304            0.0000000000
     26231      1496  TIP3      H1              3.9259086386      -14.4580855110       37.2407046805  TIP3      1304            0.0000000000
     26232      1496  TIP3      H2              3.7520525061      -13.9486356666       38.6714275493  TIP3      1304            0.0000000000
     26233      1497  TIP3      OH2             8.2145581199      -17.5305169861       36.2985039138  TIP3      1305            0.0000000000
     26234      1497  TIP3      H1              9.0536059637      -18.0531845288       36.4150369392  TIP3      1305            0.0000000000
     26235      1497  TIP3      H2              8.2254112094      -17.4800298208       35.3202202163  TIP3      1305            0.0000000000
     26236      1498  TIP3      OH2             8.3931245168      -16.6527618506       39.1722341222  TIP3      1306            0.0000000000
     26237      1498  TIP3      H1              8.4021809437      -17.0906928091       38.2993847269  TIP3      1306            0.0000000000
     26238      1498  TIP3      H2              8.0452396685      -15.7686521707       38.9463318591  TIP3      1306            0.0000000000
     26239      1499  TIP3      OH2             8.5708171222        0.8109783959       22.3770203375  TIP3      1307            0.0000000000
     26240      1499  TIP3      H1              9.5387237734        0.6981961681       22.3008164721  TIP3      1307            0.0000000000
     26241      1499  TIP3      H2              8.4618511886        1.7599162549       22.5575579207  TIP3      1307            0.0000000000
     26242      1500  TIP3      OH2             2.2783234870       -4.4779794781       21.4271668584  TIP3      1308            0.0000000000
     26243      1500  TIP3      H1              3.2483249898       -4.4303270571       21.5957601301  TIP3      1308            0.0000000000
     26244      1500  TIP3      H2              2.1783800689       -5.3828355967       21.1233581736  TIP3      1308            0.0000000000
     26245      1501  TIP3      OH2             0.7507105223        0.8241804739       26.4745089819  TIP3      1309            0.0000000000
     26246      1501  TIP3      H1              0.1982659180        0.2045356293       25.9623815778  TIP3      1309            0.0000000000
     26247      1501  TIP3      H2              1.1651814878        0.2190769626       27.1183246605  TIP3      1309            0.0000000000
     26248      1502  TIP3      OH2             1.6537488704       -1.1559412925       28.1746013760  TIP3      1310            0.0000000000
     26249      1502  TIP3      H1              1.0999893696       -1.8999624217       28.4604216552  TIP3      1310            0.0000000000
     26250      1502  TIP3      H2              1.9203867226       -0.8044656004       29.0512863800  TIP3      1310            0.0000000000
     26251      1503  TIP3      OH2            19.1160458998       -0.4667088212       30.7676668727  TIP3      1311            0.0000000000
     26252      1503  TIP3      H1             19.3164420188       -0.3798948126       31.7154650294  TIP3      1311            0.0000000000
     26253      1503  TIP3      H2             19.8342024589        0.0558121122       30.3863586325  TIP3      1311            0.0000000000
     26254      1504  TIP3      OH2            18.8971446036       -0.9788429507       34.0162836423  TIP3      1312            0.0000000000
     26255      1504  TIP3      H1             18.5427714588       -1.7497216639       33.5085580672  TIP3      1312            0.0000000000
     26256      1504  TIP3      H2             19.1798980329       -1.4169532230       34.8462059807  TIP3      1312            0.0000000000
     26257      1505  TIP3      OH2            17.4106126411       -4.9169776668       38.9148317787  TIP3      1313            0.0000000000
     26258      1505  TIP3      H1             16.5642975410       -4.8743588500       39.4190908667  TIP3      1313            0.0000000000
     26259      1505  TIP3      H2             17.8647073621       -4.1031679743       39.2379810886  TIP3      1313            0.0000000000
     26260      1506  TIP3      OH2            18.2908211248       -6.8573861219       23.9354514689  TIP3      1314            0.0000000000
     26261      1506  TIP3      H1             19.1437989105       -6.3798639979       23.9622858587  TIP3      1314            0.0000000000
     26262      1506  TIP3      H2             18.3449039073       -7.4200033033       24.7479292079  TIP3      1314            0.0000000000
     26263      1507  TIP3      OH2            18.9992595366       -8.4475314083       26.0367300819  TIP3      1315            0.0000000000
     26264      1507  TIP3      H1             18.2938041251       -9.0920801618       26.3032753595  TIP3      1315            0.0000000000
     26265      1507  TIP3      H2             19.5634061934       -8.4806968176       26.8487687585  TIP3      1315            0.0000000000
     26266      1508  TIP3      OH2            18.6169530418       -5.9892149327       30.6680909619  TIP3      1316            0.0000000000
     26267      1508  TIP3      H1             19.3639819644       -6.5931132445       30.4608819515  TIP3      1316            0.0000000000
     26268      1508  TIP3      H2             18.9624565068       -5.1154371411       30.4281021475  TIP3      1316            0.0000000000
     26269      1509  TIP3      OH2            17.3124332419       -3.0113763240       33.1589939433  TIP3      1317            0.0000000000
     26270      1509  TIP3      H1             16.5781691804       -2.6721048557       33.6968782769  TIP3      1317            0.0000000000
     26271      1509  TIP3      H2             16.8722645345       -3.1485100360       32.2917307398  TIP3      1317            0.0000000000
     26272      1510  TIP3      OH2            19.3957167768       -8.7743755204       22.2054256248  TIP3      1318            0.0000000000
     26273      1510  TIP3      H1             18.6313293527       -8.9422518622       21.6196025940  TIP3      1318            0.0000000000
     26274      1510  TIP3      H2             18.9539859180       -8.2562705297       22.9099502387  TIP3      1318            0.0000000000
     26275      1511  TIP3      OH2            17.1935597595      -10.2731228294       26.7176421273  TIP3      1319            0.0000000000
     26276      1511  TIP3      H1             16.9246684041      -11.2094111285       26.6232249212  TIP3      1319            0.0000000000
     26277      1511  TIP3      H2             16.8207092650      -10.0720526118       27.6126127934  TIP3      1319            0.0000000000
     26278      1512  TIP3      OH2             1.7285373059       -7.8264136175       30.7375250810  TIP3      1320            0.0000000000
     26279      1512  TIP3      H1              1.5917998428       -8.2087436839       29.8414890999  TIP3      1320            0.0000000000
     26280      1512  TIP3      H2              2.6385792480       -8.1612137228       30.9310888749  TIP3      1320            0.0000000000
     26281      1513  TIP3      OH2            17.8158057667       -8.1172060129       36.3298876159  TIP3      1321            0.0000000000
     26282      1513  TIP3      H1             18.2889384683       -8.9648877680       36.4863446019  TIP3      1321            0.0000000000
     26283      1513  TIP3      H2             18.5218007955       -7.5360678744       35.9944956635  TIP3      1321            0.0000000000
     26284      1514  TIP3      OH2            18.9657617296      -10.4224572696       37.2120773782  TIP3      1322            0.0000000000
     26285      1514  TIP3      H1             18.0897892566      -10.7330954023       36.8931374446  TIP3      1322            0.0000000000
     26286      1514  TIP3      H2             19.5335660150      -11.2113868933       37.0351478003  TIP3      1322            0.0000000000
     26287      1515  TIP3      OH2            16.2056430456      -12.5046087087       25.7348306435  TIP3      1323            0.0000000000
     26288      1515  TIP3      H1             16.5455684982      -13.4356303187       25.7352749368  TIP3      1323            0.0000000000
     26289      1515  TIP3      H2             16.8108935461      -12.1575132262       25.0663056180  TIP3      1323            0.0000000000
     26290      1516  TIP3      OH2            17.5991621569      -11.7249240298       30.3418644137  TIP3      1324            0.0000000000
     26291      1516  TIP3      H1             18.5748299539      -11.6257813258       30.4949400905  TIP3      1324            0.0000000000
     26292      1516  TIP3      H2             17.3031044530      -11.4713022340       31.2355473518  TIP3      1324            0.0000000000
     26293      1517  TIP3      OH2            17.2078082966      -11.2044188048       33.0821109526  TIP3      1325            0.0000000000
     26294      1517  TIP3      H1             16.2808679420      -10.9622038718       33.2824177264  TIP3      1325            0.0000000000
     26295      1517  TIP3      H2             17.6759908878      -10.3490890637       33.0459301095  TIP3      1325            0.0000000000
     26296      1518  TIP3      OH2             1.7085418610      -12.8044006561       36.5658290017  TIP3      1326            0.0000000000
     26297      1518  TIP3      H1              2.5220489188      -13.0422340314       37.0594747445  TIP3      1326            0.0000000000
     26298      1518  TIP3      H2              1.0850257677      -13.4936434543       36.8833548666  TIP3      1326            0.0000000000
     26299      1519  TIP3      OH2            19.2533434781      -16.8119714691       38.1850550628  TIP3      1327            0.0000000000
     26300      1519  TIP3      H1             19.7463024834      -17.5186649926       37.7210413038  TIP3      1327            0.0000000000
     26301      1519  TIP3      H2             19.2568708977      -16.1051349972       37.4990504747  TIP3      1327            0.0000000000
     26302      1520  TIP3      OH2            17.2737871167      -14.8140209640       25.1524251800  TIP3      1328            0.0000000000
     26303      1520  TIP3      H1             17.5122199769      -15.4358498338       25.8746905789  TIP3      1328            0.0000000000
     26304      1520  TIP3      H2             16.7036653920      -15.3861906028       24.6099111596  TIP3      1328            0.0000000000
     26305      1521  TIP3      OH2             2.5737331595      -14.4935303188       30.4189710012  TIP3      1329            0.0000000000
     26306      1521  TIP3      H1              3.0226797994      -15.3686617238       30.3475813757  TIP3      1329            0.0000000000
     26307      1521  TIP3      H2              3.2868576217      -13.8773160590       30.1823245473  TIP3      1329            0.0000000000
     26308      1522  TIP3      OH2             1.0353922127      -11.4628079917       30.7554979335  TIP3      1330            0.0000000000
     26309      1522  TIP3      H1              1.6895092475      -11.7315509448       30.0838939329  TIP3      1330            0.0000000000
     26310      1522  TIP3      H2              1.3879688892      -10.5874897334       30.9715932501  TIP3      1330            0.0000000000
     26311      1523  TIP3      OH2            18.8817304547      -14.6261390141       36.7189064823  TIP3      1331            0.0000000000
     26312      1523  TIP3      H1             18.0941923607      -14.5735868180       37.3035346379  TIP3      1331            0.0000000000
     26313      1523  TIP3      H2             18.4864725767      -15.0213914514       35.9264298941  TIP3      1331            0.0000000000
     26314      1524  TIP3      OH2            19.1325832014      -15.1938539765       21.2052134637  TIP3      1332            0.0000000000
     26315      1524  TIP3      H1             19.8049057013      -15.8903304084       21.0709205898  TIP3      1332            0.0000000000
     26316      1524  TIP3      H2             19.5475150039      -14.7336749893       21.9507128856  TIP3      1332            0.0000000000
     26317      1525  TIP3      OH2             1.3178278213      -15.0412903257       24.9550214934  TIP3      1333            0.0000000000
     26318      1525  TIP3      H1              0.3669612505      -14.8200632526       25.0274272963  TIP3      1333            0.0000000000
     26319      1525  TIP3      H2              1.5415914457      -14.6049617163       24.1074944680  TIP3      1333            0.0000000000
     26320      1526  TIP3      OH2            16.0244150377       -0.3763550926       26.5221212404  TIP3      1334            0.0000000000
     26321      1526  TIP3      H1             16.6709634140       -0.5408091142       25.8126008338  TIP3      1334            0.0000000000
     26322      1526  TIP3      H2             16.4207661730        0.3545585719       27.0387315813  TIP3      1334            0.0000000000
     26323      1527  TIP3      OH2             1.2337987606      -16.5340379684       33.1454040078  TIP3      1335            0.0000000000
     26324      1527  TIP3      H1              0.5042073580      -16.9182769470       33.6652602810  TIP3      1335            0.0000000000
     26325      1527  TIP3      H2              0.8105676330      -15.8389715386       32.6223011414  TIP3      1335            0.0000000000
     26326      1528  TIP3      OH2             3.4915810480       -3.4968596411       37.0541580440  TIP3      1336            0.0000000000
     26327      1528  TIP3      H1              2.6471842922       -3.1119156885       36.7667858416  TIP3      1336            0.0000000000
     26328      1528  TIP3      H2              3.2808975501       -3.7915019029       37.9425310519  TIP3      1336            0.0000000000
     26329      1529  TIP3      OH2             6.3140335700       -1.9887062802       33.8098757839  TIP3      1337            0.0000000000
     26330      1529  TIP3      H1              6.2182596895       -1.0787564075       33.4511836216  TIP3      1337            0.0000000000
     26331      1529  TIP3      H2              7.2919520914       -2.0726506168       33.7826826567  TIP3      1337            0.0000000000
     26332      1530  TIP3      OH2            10.4445410637       -0.7274395763       36.3088271155  TIP3      1338            0.0000000000
     26333      1530  TIP3      H1             10.4940968125       -0.7456085283       37.2844036980  TIP3      1338            0.0000000000
     26334      1530  TIP3      H2             11.3208016938       -0.3542164696       36.0816340262  TIP3      1338            0.0000000000
     26335      1531  TIP3      OH2            12.7033964059        0.9747613970       35.8941281170  TIP3      1339            0.0000000000
     26336      1531  TIP3      H1             13.5601852577        0.8546540817       35.4444779032  TIP3      1339            0.0000000000
     26337      1531  TIP3      H2             12.9427159758        1.2479391954       36.8046523761  TIP3      1339            0.0000000000
     26338      1532  TIP3      OH2            18.3597382664      -16.9602748629       35.0686184728  TIP3      1340            0.0000000000
     26339      1532  TIP3      H1             17.5773917069      -16.6816547262       34.5675882819  TIP3      1340            0.0000000000
     26340      1532  TIP3      H2             18.5721304861      -17.7849713311       34.6114886409  TIP3      1340            0.0000000000
     26341      1533  TIP3      OH2             3.6663226356        1.0670912663       33.4084172025  TIP3      1341            0.0000000000
     26342      1533  TIP3      H1              2.8215305078        1.4514688689       33.0700759915  TIP3      1341            0.0000000000
     26343      1533  TIP3      H2              3.6771678918        1.4277890400       34.3112100939  TIP3      1341            0.0000000000
     26344      1534  TIP3      OH2             6.0305114802        0.4922607034       32.4336434924  TIP3      1342            0.0000000000
     26345      1534  TIP3      H1              5.0875875776        0.7351339352       32.6158069482  TIP3      1342            0.0000000000
     26346      1534  TIP3      H2              6.2518185939        1.1281903414       31.7266786210  TIP3      1342            0.0000000000
     26347      1535  TIP3      OH2            11.3428012019        0.3243641744       31.4855270704  TIP3      1343            0.0000000000
     26348      1535  TIP3      H1             10.4878120305        0.4584813382       31.0520450609  TIP3      1343            0.0000000000
     26349      1535  TIP3      H2             11.3647718328        1.0599704253       32.1364060218  TIP3      1343            0.0000000000
     26350      1536  TIP3      OH2            12.9804539244       -0.9891473418       33.2546826923  TIP3      1344            0.0000000000
     26351      1536  TIP3      H1             12.3545020997       -0.5666304086       32.6219927137  TIP3      1344            0.0000000000
     26352      1536  TIP3      H2             13.7825975861       -0.5181901718       32.9597735164  TIP3      1344            0.0000000000
     26353      1537  TIP3      OH2            15.6741186056        0.3413726962       32.8642106216  TIP3      1345            0.0000000000
     26354      1537  TIP3      H1             15.8307760707        1.2308851724       32.5066385791  TIP3      1345            0.0000000000
     26355      1537  TIP3      H2             15.9487551669       -0.1943755883       32.0790780147  TIP3      1345            0.0000000000
     26356      1538  TIP3      OH2             3.3002498246       -0.5989947814       30.4583779628  TIP3      1346            0.0000000000
     26357      1538  TIP3      H1              3.0849822210       -1.2486321504       31.1656430122  TIP3      1346            0.0000000000
     26358      1538  TIP3      H2              4.2116435736       -0.8839747978       30.2269915665  TIP3      1346            0.0000000000
     26359      1539  TIP3      OH2             5.5665796631       -1.4175357807       29.2141807771  TIP3      1347            0.0000000000
     26360      1539  TIP3      H1              5.4454600391       -2.3777181327       29.3772537944  TIP3      1347            0.0000000000
     26361      1539  TIP3      H2              6.4254232533       -1.2964541803       29.6714988432  TIP3      1347            0.0000000000
     26362      1540  TIP3      OH2             7.8301250759       -1.5521171235       30.6794847335  TIP3      1348            0.0000000000
     26363      1540  TIP3      H1              8.1805224463       -2.4556280055       30.5283444282  TIP3      1348            0.0000000000
     26364      1540  TIP3      H2              7.9271017397       -1.4732153298       31.6408328300  TIP3      1348            0.0000000000
     26365      1541  TIP3      OH2            10.7225487361      -15.8808822200       28.6988340884  TIP3      1349            0.0000000000
     26366      1541  TIP3      H1             10.1465376512      -16.3615209237       29.3356660898  TIP3      1349            0.0000000000
     26367      1541  TIP3      H2             11.5289272937      -16.4105279344       28.7127175725  TIP3      1349            0.0000000000
     26368      1542  TIP3      OH2            16.8082518591      -17.5011597434       29.2863650519  TIP3      1350            0.0000000000
     26369      1542  TIP3      H1             17.4647653489      -16.9102042856       28.8477568525  TIP3      1350            0.0000000000
     26370      1542  TIP3      H2             15.9763531883      -17.0436576040       29.0686603571  TIP3      1350            0.0000000000
     26371      1543  TIP3      OH2            18.2999738573      -16.1461928861       27.3036287448  TIP3      1351            0.0000000000
     26372      1543  TIP3      H1             18.9279181973      -16.8135567021       26.9130598969  TIP3      1351            0.0000000000
     26373      1543  TIP3      H2             18.9007448158      -15.3683826480       27.4220032149  TIP3      1351            0.0000000000
     26374      1544  TIP3      OH2             3.7237446532      -17.2374640637       27.2791182140  TIP3      1352            0.0000000000
     26375      1544  TIP3      H1              2.8664211443      -17.2685381228       26.8165708776  TIP3      1352            0.0000000000
     26376      1544  TIP3      H2              4.0889070450      -18.1303287951       27.0521714664  TIP3      1352            0.0000000000
     26377      1545  TIP3      OH2             2.1196815455      -17.0052245791       22.4202955151  TIP3      1353            0.0000000000
     26378      1545  TIP3      H1              2.7439483644      -16.3631300978       22.0210061394  TIP3      1353            0.0000000000
     26379      1545  TIP3      H2              1.9238815631      -16.6295056443       23.2929652405  TIP3      1353            0.0000000000
     26380      1546  TIP3      OH2             8.1733791773      -17.3534947704       26.9758988528  TIP3      1354            0.0000000000
     26381      1546  TIP3      H1              9.0780271240      -17.4317462793       26.6385001850  TIP3      1354            0.0000000000
     26382      1546  TIP3      H2              8.2932293460      -16.8458660292       27.7959909089  TIP3      1354            0.0000000000
     26383      1547  TIP3      OH2            14.0953015988      -16.9230423593       28.4496639457  TIP3      1355            0.0000000000
     26384      1547  TIP3      H1             14.2072776254      -16.9037548060       27.4971073082  TIP3      1355            0.0000000000
     26385      1547  TIP3      H2             13.5359874192      -17.7274623403       28.5438110041  TIP3      1355            0.0000000000
     26386      1548  TIP3      OH2            16.1314004319      -17.6227584041       24.0030814318  TIP3      1356            0.0000000000
     26387      1548  TIP3      H1             15.8743555214      -17.1337642534       23.1840098387  TIP3      1356            0.0000000000
     26388      1548  TIP3      H2             15.2764930890      -18.0241011408       24.2611749062  TIP3      1356            0.0000000000
     26389      1549  TIP3      OH2             2.4311266970       -1.2152451630       23.8870421822  TIP3      1357            0.0000000000
     26390      1549  TIP3      H1              1.6818889384       -1.4167121464       23.3125631053  TIP3      1357            0.0000000000
     26391      1549  TIP3      H2              2.3791011161       -0.2496079641       23.8810372759  TIP3      1357            0.0000000000
     26392      1550  TIP3      OH2             4.1110125276      -15.3304054506       21.3041184225  TIP3      1358            0.0000000000
     26393      1550  TIP3      H1              4.5479516549      -16.0943809641       20.9087798655  TIP3      1358            0.0000000000
     26394      1550  TIP3      H2              4.8815117044      -14.7511892202       21.4582332917  TIP3      1358            0.0000000000
     26395      1551  TIP3      OH2             9.2725504554      -15.0245700230       23.3930085832  TIP3      1359            0.0000000000
     26396      1551  TIP3      H1              9.5870274498      -15.5510858490       24.1468019605  TIP3      1359            0.0000000000
     26397      1551  TIP3      H2              9.5616843797      -14.1542003798       23.7391270267  TIP3      1359            0.0000000000
     26398      1552  TIP3      OH2            11.3957321964        0.6435150687       21.8146634403  TIP3      1360            0.0000000000
     26399      1552  TIP3      H1             11.6762712534        1.2064954979       21.0813104454  TIP3      1360            0.0000000000
     26400      1552  TIP3      H2             11.1388906882       -0.1572476080       21.3384268964  TIP3      1360            0.0000000000
     26401      1553  TIP3      OH2            17.9399075790       -0.9240763708       24.7567724473  TIP3      1361            0.0000000000
     26402      1553  TIP3      H1             17.7819422196       -1.7447950111       24.2359444138  TIP3      1361            0.0000000000
     26403      1553  TIP3      H2             17.8451126560       -0.2646942076       24.0500067832  TIP3      1361            0.0000000000
     26404      1554  TIP3      OH2             3.3402035017      -16.2587950540       36.2763363895  TIP3      1362            0.0000000000
     26405      1554  TIP3      H1              2.7596894368      -17.0381272275       36.3142236619  TIP3      1362            0.0000000000
     26406      1554  TIP3      H2              3.9992216965      -16.4510063631       36.9880477758  TIP3      1362            0.0000000000
     26407      1555  TIP3      OH2             5.3013739733      -16.8632902340       38.2060954434  TIP3      1363            0.0000000000
     26408      1555  TIP3      H1              6.1332667807      -17.2953460112       37.9294708484  TIP3      1363            0.0000000000
     26409      1555  TIP3      H2              4.9026530045      -17.5989144672       38.7231449451  TIP3      1363            0.0000000000
     26410      1556  TIP3      OH2            13.9253578583      -17.9136366179       38.2678316729  TIP3      1364            0.0000000000
     26411      1556  TIP3      H1             14.0479051243      -18.3771058382       39.1157387232  TIP3      1364            0.0000000000
     26412      1556  TIP3      H2             14.8565834018      -17.8605456530       37.9609258237  TIP3      1364            0.0000000000
     26413      1557  TIP3      OH2            17.3663157711       -1.5215279774       36.8649438982  TIP3      1365            0.0000000000
     26414      1557  TIP3      H1             16.8631895366       -1.5115069461       36.0209656962  TIP3      1365            0.0000000000
     26415      1557  TIP3      H2             17.0872211254       -0.6747169584       37.2588319558  TIP3      1365            0.0000000000
     26416      1558  TIP3      OH2            31.9828306050       -7.8443297340       26.5170444372  TIP3      1366            0.0000000000
     26417      1558  TIP3      H1             32.0627218924       -6.9096535470       26.7845806563  TIP3      1366            0.0000000000
     26418      1558  TIP3      H2             31.0415684453       -7.9432871461       26.3588483323  TIP3      1366            0.0000000000
     26419      1559  TIP3      OH2            30.2249383943       -8.5576105814       30.4208852648  TIP3      1367            0.0000000000
     26420      1559  TIP3      H1             30.5585450913       -9.0921832743       31.1710718445  TIP3      1367            0.0000000000
     26421      1559  TIP3      H2             29.8512403727       -9.2520073584       29.8313529840  TIP3      1367            0.0000000000
     26422      1560  TIP3      OH2            22.7105392219       -8.9353112826       31.5296941041  TIP3      1368            0.0000000000
     26423      1560  TIP3      H1             22.5457846478       -9.6595425900       32.1607305920  TIP3      1368            0.0000000000
     26424      1560  TIP3      H2             23.4872705291       -8.5345028372       31.9483059134  TIP3      1368            0.0000000000
     26425      1561  TIP3      OH2            34.0922543163       -5.7310126914       28.9410064609  TIP3      1369            0.0000000000
     26426      1561  TIP3      H1             33.8719834165       -6.4670908388       29.5307912615  TIP3      1369            0.0000000000
     26427      1561  TIP3      H2             34.3153057687       -5.0294671468       29.5821862291  TIP3      1369            0.0000000000
     26428      1562  TIP3      OH2            23.8609663524       -4.1372149619       29.9300783686  TIP3      1370            0.0000000000
     26429      1562  TIP3      H1             23.5935942002       -5.0751740174       29.8306003143  TIP3      1370            0.0000000000
     26430      1562  TIP3      H2             24.8242249982       -4.2431019374       29.7559041088  TIP3      1370            0.0000000000
     26431      1563  TIP3      OH2            20.6177981224      -11.1980310433       25.4330549522  TIP3      1371            0.0000000000
     26432      1563  TIP3      H1             20.5521039251      -10.2741397126       25.7166916061  TIP3      1371            0.0000000000
     26433      1563  TIP3      H2             19.6799711283      -11.3562970617       25.2151088531  TIP3      1371            0.0000000000
     26434      1564  TIP3      OH2            20.5120158791       -8.8420040309       28.1771300551  TIP3      1372            0.0000000000
     26435      1564  TIP3      H1             20.9719191411       -9.7079595622       28.2648092454  TIP3      1372            0.0000000000
     26436      1564  TIP3      H2             21.2812369879       -8.2556548748       28.1294085394  TIP3      1372            0.0000000000
     26437      1565  TIP3      OH2            31.0121655956       -0.5842651642       28.6916733646  TIP3      1373            0.0000000000
     26438      1565  TIP3      H1             31.7338977785       -1.1212412243       28.2850963437  TIP3      1373            0.0000000000
     26439      1565  TIP3      H2             31.0000679256       -0.9431829104       29.5928333807  TIP3      1373            0.0000000000
     26440      1566  TIP3      OH2            28.7093406487       -5.5640344032       31.0716856304  TIP3      1374            0.0000000000
     26441      1566  TIP3      H1             28.8666107468       -6.0532106112       30.2540314124  TIP3      1374            0.0000000000
     26442      1566  TIP3      H2             29.5757636029       -5.6640354490       31.5197825618  TIP3      1374            0.0000000000
     26443      1567  TIP3      OH2            32.4582874577      -11.5650471919       31.1712648935  TIP3      1375            0.0000000000
     26444      1567  TIP3      H1             32.3804948874      -12.5305955674       31.2892787434  TIP3      1375            0.0000000000
     26445      1567  TIP3      H2             32.7203184256      -11.5474235454       30.2337604626  TIP3      1375            0.0000000000
     26446      1568  TIP3      OH2            25.2940923163      -13.9202012582       28.0345280741  TIP3      1376            0.0000000000
     26447      1568  TIP3      H1             25.4630157753      -13.0787928860       27.5597641728  TIP3      1376            0.0000000000
     26448      1568  TIP3      H2             24.8302634775      -14.4145078432       27.3314273503  TIP3      1376            0.0000000000
     26449      1569  TIP3      OH2            32.4956224825      -13.5845018241       27.3899698885  TIP3      1377            0.0000000000
     26450      1569  TIP3      H1             33.3557290833      -13.9538511926       27.7091170356  TIP3      1377            0.0000000000
     26451      1569  TIP3      H2             32.7181520262      -13.3319249151       26.4798564855  TIP3      1377            0.0000000000
     26452      1570  TIP3      OH2            21.8696969989      -10.9682318868       28.8677464454  TIP3      1378            0.0000000000
     26453      1570  TIP3      H1             22.4815849295      -11.3338003100       29.5294643930  TIP3      1378            0.0000000000
     26454      1570  TIP3      H2             22.2246337746      -11.3788047989       28.0494235276  TIP3      1378            0.0000000000
     26455      1571  TIP3      OH2            26.4338522958       -9.5973155901       28.4827285828  TIP3      1379            0.0000000000
     26456      1571  TIP3      H1             27.3550587352       -9.8971603776       28.5187766258  TIP3      1379            0.0000000000
     26457      1571  TIP3      H2             26.0324941333      -10.3410377705       27.9736067175  TIP3      1379            0.0000000000
     26458      1572  TIP3      OH2            24.3065959537      -14.5810827838       32.4679700972  TIP3      1380            0.0000000000
     26459      1572  TIP3      H1             23.9161567745      -14.1710838563       31.6714254046  TIP3      1380            0.0000000000
     26460      1572  TIP3      H2             23.7501223174      -14.1640677009       33.1457075554  TIP3      1380            0.0000000000
     26461      1573  TIP3      OH2            31.2019455994       -5.0417444409       25.9180433453  TIP3      1381            0.0000000000
     26462      1573  TIP3      H1             30.6127006007       -5.1118822710       25.1646566204  TIP3      1381            0.0000000000
     26463      1573  TIP3      H2             30.9456889316       -4.1412219393       26.2079465138  TIP3      1381            0.0000000000
     26464      1574  TIP3      OH2            26.4920850255       -6.8108319209       32.0020361509  TIP3      1382            0.0000000000
     26465      1574  TIP3      H1             25.9096230065       -6.0769735797       32.3075011322  TIP3      1382            0.0000000000
     26466      1574  TIP3      H2             27.2782834936       -6.3100866775       31.6899075882  TIP3      1382            0.0000000000
     26467      1575  TIP3      OH2            34.6845354189      -14.1883476476       28.9133128603  TIP3      1383            0.0000000000
     26468      1575  TIP3      H1             34.2700392440      -14.6801896560       29.6378298242  TIP3      1383            0.0000000000
     26469      1575  TIP3      H2             35.1828129547      -13.5198463042       29.4256359508  TIP3      1383            0.0000000000
     26470      1576  TIP3      OH2            23.9013396691      -12.8397631420       30.1764133147  TIP3      1384            0.0000000000
     26471      1576  TIP3      H1             24.5249927592      -12.1779710384       30.5459986645  TIP3      1384            0.0000000000
     26472      1576  TIP3      H2             24.4124266066      -13.2111684456       29.4258666196  TIP3      1384            0.0000000000
     26473      1577  TIP3      OH2            24.9902575471       -4.8592988965       33.1220112398  TIP3      1385            0.0000000000
     26474      1577  TIP3      H1             24.7366515500       -4.1309065881       32.5287497136  TIP3      1385            0.0000000000
     26475      1577  TIP3      H2             24.1278145442       -4.9635601331       33.6059485362  TIP3      1385            0.0000000000
     26476      1578  TIP3      OH2            20.7227508301       -5.4209198499       23.8086851624  TIP3      1386            0.0000000000
     26477      1578  TIP3      H1             20.8389959163       -4.6730119699       23.2061999284  TIP3      1386            0.0000000000
     26478      1578  TIP3      H2             21.0791795239       -5.0489075102       24.6408291483  TIP3      1386            0.0000000000
     26479      1579  TIP3      OH2            34.5693298059       -3.8396785788       30.8355737237  TIP3      1387            0.0000000000
     26480      1579  TIP3      H1             33.6635518719       -3.8374638290       31.2357422960  TIP3      1387            0.0000000000
     26481      1579  TIP3      H2             34.7177153823       -2.8973862234       30.6820065791  TIP3      1387            0.0000000000
     26482      1580  TIP3      OH2            35.0913680079      -14.6777145819       32.1863263031  TIP3      1388            0.0000000000
     26483      1580  TIP3      H1             34.1796247579      -14.3842500559       32.0070861644  TIP3      1388            0.0000000000
     26484      1580  TIP3      H2             35.5826973934      -14.0894721262       31.5804776234  TIP3      1388            0.0000000000
     26485      1581  TIP3      OH2            27.5879418864      -17.5387916340       29.4388017132  TIP3      1389            0.0000000000
     26486      1581  TIP3      H1             27.3187299910      -18.4700559689       29.5551812921  TIP3      1389            0.0000000000
     26487      1581  TIP3      H2             26.7544840211      -17.0927365763       29.7385060453  TIP3      1389            0.0000000000
     26488      1582  TIP3      OH2            32.7527613603       -1.9687788266       27.2695429191  TIP3      1390            0.0000000000
     26489      1582  TIP3      H1             33.3409304759       -2.6677441290       26.9131107871  TIP3      1390            0.0000000000
     26490      1582  TIP3      H2             33.3592911276       -1.2028884890       27.1511579775  TIP3      1390            0.0000000000
     26491      1583  TIP3      OH2            34.6575314042       -3.6490716040       26.3866911212  TIP3      1391            0.0000000000
     26492      1583  TIP3      H1             34.2975974427       -4.2578304147       25.7357387887  TIP3      1391            0.0000000000
     26493      1583  TIP3      H2             34.8679908566       -4.2858387763       27.0967173210  TIP3      1391            0.0000000000
     26494      1584  TIP3      OH2            35.5159745027       -5.4566660411       34.7562981036  TIP3      1392            0.0000000000
     26495      1584  TIP3      H1             35.6337353053       -6.2082682586       34.1364041469  TIP3      1392            0.0000000000
     26496      1584  TIP3      H2             35.6252642618       -4.6638567098       34.1884289157  TIP3      1392            0.0000000000
     26497      1585  TIP3      OH2            33.4097319693      -10.1549861481       34.4289081194  TIP3      1393            0.0000000000
     26498      1585  TIP3      H1             33.5725056265       -9.2083929905       34.5765792585  TIP3      1393            0.0000000000
     26499      1585  TIP3      H2             32.6367276491      -10.1125459473       33.8306845154  TIP3      1393            0.0000000000
     26500      1586  TIP3      OH2            25.2046476676       -7.6329200608       27.0465173801  TIP3      1394            0.0000000000
     26501      1586  TIP3      H1             24.5225672220       -8.0057396205       26.4408218420  TIP3      1394            0.0000000000
     26502      1586  TIP3      H2             25.5770379985       -8.4251687182       27.4739400074  TIP3      1394            0.0000000000
     26503      1587  TIP3      OH2            26.5783248444       -4.2881889929       29.6637960525  TIP3      1395            0.0000000000
     26504      1587  TIP3      H1             26.7981819842       -4.3539243298       28.7129714244  TIP3      1395            0.0000000000
     26505      1587  TIP3      H2             27.3702707756       -4.6718708247       30.0843653883  TIP3      1395            0.0000000000
     26506      1588  TIP3      OH2            25.5125225271       -9.0506625798       30.9532821592  TIP3      1396            0.0000000000
     26507      1588  TIP3      H1             25.8324351252       -9.1376512664       30.0253238143  TIP3      1396            0.0000000000
     26508      1588  TIP3      H2             25.9808151055       -8.2351662150       31.2405919273  TIP3      1396            0.0000000000
     26509      1589  TIP3      OH2            32.1577126915       -3.3791229303       31.7665756775  TIP3      1397            0.0000000000
     26510      1589  TIP3      H1             31.9800600471       -2.6536763501       32.4044867128  TIP3      1397            0.0000000000
     26511      1589  TIP3      H2             31.6286373725       -4.1041889173       32.1362256827  TIP3      1397            0.0000000000
     26512      1590  TIP3      OH2            26.7689423743       -4.4818212836       35.1703438337  TIP3      1398            0.0000000000
     26513      1590  TIP3      H1             26.1198772835       -3.9698308234       35.7076317822  TIP3      1398            0.0000000000
     26514      1590  TIP3      H2             26.2127968260       -4.6771474976       34.3827439430  TIP3      1398            0.0000000000
     26515      1591  TIP3      OH2            23.5670659880       -8.3728908666       34.1592078244  TIP3      1399            0.0000000000
     26516      1591  TIP3      H1             23.7995455142       -7.4512319988       34.3570253458  TIP3      1399            0.0000000000
     26517      1591  TIP3      H2             22.9602180688       -8.5352361856       34.9050112298  TIP3      1399            0.0000000000
     26518      1592  TIP3      OH2            30.1508589806       -2.4705541687       26.1573278879  TIP3      1400            0.0000000000
     26519      1592  TIP3      H1             30.8235168855       -2.1954929995       26.8014101171  TIP3      1400            0.0000000000
     26520      1592  TIP3      H2             29.5363364573       -1.7304432156       26.2130579074  TIP3      1400            0.0000000000
     26521      1593  TIP3      OH2            24.9492981308       -2.9645042511       36.3641573061  TIP3      1401            0.0000000000
     26522      1593  TIP3      H1             24.8389447510       -2.4756119392       35.5130954144  TIP3      1401            0.0000000000
     26523      1593  TIP3      H2             24.0206973803       -3.2475445399       36.5091042083  TIP3      1401            0.0000000000
     26524      1594  TIP3      OH2            36.8997316177      -17.6191231001       22.3540796901  TIP3      1402            0.0000000000
     26525      1594  TIP3      H1             35.9265086765      -17.6592553858       22.4359716495  TIP3      1402            0.0000000000
     26526      1594  TIP3      H2             37.0758257785      -16.6519369422       22.5173363775  TIP3      1402            0.0000000000
     26527      1595  TIP3      OH2            23.6335044343       -8.7882919120       25.2581533234  TIP3      1403            0.0000000000
     26528      1595  TIP3      H1             23.7408380174       -8.0454171099       24.6275517052  TIP3      1403            0.0000000000
     26529      1595  TIP3      H2             23.9825286331       -9.5240328052       24.7491924957  TIP3      1403            0.0000000000
     26530      1596  TIP3      OH2            20.6302020648       -6.3545288331       33.9351863892  TIP3      1404            0.0000000000
     26531      1596  TIP3      H1             20.2891417673       -6.4661911111       33.0384515453  TIP3      1404            0.0000000000
     26532      1596  TIP3      H2             20.7801165525       -7.2964777497       34.1787236194  TIP3      1404            0.0000000000
     26533      1597  TIP3      OH2            20.4310610937       -3.3989070654       30.2729533071  TIP3      1405            0.0000000000
     26534      1597  TIP3      H1             21.1314899797       -4.0446370793       30.4343988896  TIP3      1405            0.0000000000
     26535      1597  TIP3      H2             20.6637656961       -2.7467318992       30.9593504246  TIP3      1405            0.0000000000
     26536      1598  TIP3      OH2            29.3874836988       -3.5644829783       35.2103257790  TIP3      1406            0.0000000000
     26537      1598  TIP3      H1             29.5191657658       -2.8363725455       35.8408964432  TIP3      1406            0.0000000000
     26538      1598  TIP3      H2             28.4481605486       -3.8205165466       35.3308935938  TIP3      1406            0.0000000000
     26539      1599  TIP3      OH2            29.7408035030        0.4833594332       24.1721896156  TIP3      1407            0.0000000000
     26540      1599  TIP3      H1             28.8136163613        0.1914135946       24.1504034489  TIP3      1407            0.0000000000
     26541      1599  TIP3      H2             29.7462089447        1.2977333326       24.7111469919  TIP3      1407            0.0000000000
     26542      1600  TIP3      OH2            23.2866107409       -0.9330330896       26.8378034991  TIP3      1408            0.0000000000
     26543      1600  TIP3      H1             23.8373676146       -0.9923135400       27.6427341194  TIP3      1408            0.0000000000
     26544      1600  TIP3      H2             22.4040867152       -1.0479577329       27.2251203133  TIP3      1408            0.0000000000
     26545      1601  TIP3      OH2            32.5971137435       -1.0040634467       21.8673664792  TIP3      1409            0.0000000000
     26546      1601  TIP3      H1             32.7667512126       -0.3114383982       21.2176003332  TIP3      1409            0.0000000000
     26547      1601  TIP3      H2             32.6355264875       -0.5587577383       22.7271084157  TIP3      1409            0.0000000000
     26548      1602  TIP3      OH2            32.2732171417       -0.2930784001       24.6396290727  TIP3      1410            0.0000000000
     26549      1602  TIP3      H1             31.3023246424       -0.2152064038       24.4895335630  TIP3      1410            0.0000000000
     26550      1602  TIP3      H2             32.3070427579       -0.9470709910       25.3481661838  TIP3      1410            0.0000000000
     26551      1603  TIP3      OH2            35.1260989467      -11.3902965475       36.7527646339  TIP3      1411            0.0000000000
     26552      1603  TIP3      H1             35.0046493188      -11.3891830730       35.7925516122  TIP3      1411            0.0000000000
     26553      1603  TIP3      H2             36.0768888775      -11.6536160999       36.8026341431  TIP3      1411            0.0000000000
     26554      1604  TIP3      OH2            22.8013905643       -5.0008507808       34.5439490498  TIP3      1412            0.0000000000
     26555      1604  TIP3      H1             22.9007117340       -5.3490456544       35.4568544163  TIP3      1412            0.0000000000
     26556      1604  TIP3      H2             21.9378319918       -5.3975494878       34.2828005689  TIP3      1412            0.0000000000
     26557      1605  TIP3      OH2            25.2517746158      -16.5028569067       30.2818271591  TIP3      1413            0.0000000000
     26558      1605  TIP3      H1             24.2722445951      -16.4915179880       30.2893706991  TIP3      1413            0.0000000000
     26559      1605  TIP3      H2             25.4701953249      -15.7640187077       30.8641740555  TIP3      1413            0.0000000000
     26560      1606  TIP3      OH2            30.1819867804      -16.8423105674       33.6842154631  TIP3      1414            0.0000000000
     26561      1606  TIP3      H1             30.6658535761      -17.2329341402       34.4420713074  TIP3      1414            0.0000000000
     26562      1606  TIP3      H2             29.2352281205      -16.8674857614       33.9653868160  TIP3      1414            0.0000000000
     26563      1607  TIP3      OH2            33.3260199460      -13.0072216332       34.6316766763  TIP3      1415            0.0000000000
     26564      1607  TIP3      H1             32.8217367398      -13.2578084566       35.4279919986  TIP3      1415            0.0000000000
     26565      1607  TIP3      H2             33.3943336841      -12.0442983169       34.7740953474  TIP3      1415            0.0000000000
     26566      1608  TIP3      OH2            25.5926863571      -11.4303579151       32.0934144427  TIP3      1416            0.0000000000
     26567      1608  TIP3      H1             24.7368830955      -11.3607025476       32.5479164838  TIP3      1416            0.0000000000
     26568      1608  TIP3      H2             25.6842887383      -10.4964719699       31.7811091281  TIP3      1416            0.0000000000
     26569      1609  TIP3      OH2            25.4195303935      -11.5456812987       26.8571430284  TIP3      1417            0.0000000000
     26570      1609  TIP3      H1             24.4518003328      -11.6368767895       26.6790236341  TIP3      1417            0.0000000000
     26571      1609  TIP3      H2             25.8204507972      -11.4334788372       25.9575071574  TIP3      1417            0.0000000000
     26572      1610  TIP3      OH2            31.2398154799      -10.9973877178       25.1949513422  TIP3      1418            0.0000000000
     26573      1610  TIP3      H1             30.8638140840      -10.5510163872       24.4230630968  TIP3      1418            0.0000000000
     26574      1610  TIP3      H2             31.6776528819      -11.7189458737       24.6851694010  TIP3      1418            0.0000000000
     26575      1611  TIP3      OH2            29.7981508241      -10.4844018610       36.7118387837  TIP3      1419            0.0000000000
     26576      1611  TIP3      H1             29.3919616239      -11.3074385164       37.0634006789  TIP3      1419            0.0000000000
     26577      1611  TIP3      H2             30.6085312577      -10.4586221334       37.2395924471  TIP3      1419            0.0000000000
     26578      1612  TIP3      OH2            32.5846332731      -10.9793641748       28.3266913572  TIP3      1420            0.0000000000
     26579      1612  TIP3      H1             32.2948462982      -10.4283756572       27.5681693479  TIP3      1420            0.0000000000
     26580      1612  TIP3      H2             32.4777945861      -11.8938598463       27.9639604260  TIP3      1420            0.0000000000
     26581      1613  TIP3      OH2            22.9767137676      -11.4655730643       32.9978229458  TIP3      1421            0.0000000000
     26582      1613  TIP3      H1             23.2024990911      -11.2552732674       33.9196184904  TIP3      1421            0.0000000000
     26583      1613  TIP3      H2             22.6291720169      -12.3776268911       33.0438612739  TIP3      1421            0.0000000000
     26584      1614  TIP3      OH2            26.2117187459      -13.8389664860       20.7246402193  TIP3      1422            0.0000000000
     26585      1614  TIP3      H1             25.7510133921      -14.5852470957       21.1401867012  TIP3      1422            0.0000000000
     26586      1614  TIP3      H2             26.3653518787      -14.1374539143       19.8146462018  TIP3      1422            0.0000000000
     26587      1615  TIP3      OH2            20.0332343506      -14.0859938368       27.5862806506  TIP3      1423            0.0000000000
     26588      1615  TIP3      H1             20.9133749917      -14.2388048239       27.9488150151  TIP3      1423            0.0000000000
     26589      1615  TIP3      H2             20.2399618695      -13.8196638129       26.6766227182  TIP3      1423            0.0000000000
     26590      1616  TIP3      OH2            20.5771209346      -13.3270405910       22.8284663099  TIP3      1424            0.0000000000
     26591      1616  TIP3      H1             21.4898273445      -13.0857609127       22.6390938614  TIP3      1424            0.0000000000
     26592      1616  TIP3      H2             20.2106802158      -12.5372773118       23.2645771919  TIP3      1424            0.0000000000
     26593      1617  TIP3      OH2            31.2433343635       -9.6818219937       32.6305546338  TIP3      1425            0.0000000000
     26594      1617  TIP3      H1             31.7517768034      -10.3662567448       32.1268123671  TIP3      1425            0.0000000000
     26595      1617  TIP3      H2             30.6715247511      -10.2304496808       33.2162500329  TIP3      1425            0.0000000000
     26596      1618  TIP3      OH2            28.4512329445      -13.8664756328       27.9997765877  TIP3      1426            0.0000000000
     26597      1618  TIP3      H1             27.4901412004      -13.9170836283       28.1350207104  TIP3      1426            0.0000000000
     26598      1618  TIP3      H2             28.8079278319      -14.4063821581       28.7271873977  TIP3      1426            0.0000000000
     26599      1619  TIP3      OH2            22.8493018469      -12.2244215500       26.6233022901  TIP3      1427            0.0000000000
     26600      1619  TIP3      H1             22.1144051849      -11.9295298324       26.0340717085  TIP3      1427            0.0000000000
     26601      1619  TIP3      H2             23.0701200324      -13.1198117458       26.2795068337  TIP3      1427            0.0000000000
     26602      1620  TIP3      OH2            26.5282226788      -11.5651822510       24.4695441165  TIP3      1428            0.0000000000
     26603      1620  TIP3      H1             27.2285041077      -12.2260131064       24.3715518194  TIP3      1428            0.0000000000
     26604      1620  TIP3      H2             26.0321569799      -11.6046601693       23.6419622200  TIP3      1428            0.0000000000
     26605      1621  TIP3      OH2            32.2730058352      -14.2527097020       30.7898554687  TIP3      1429            0.0000000000
     26606      1621  TIP3      H1             31.6232891708      -14.6680765895       31.3874849284  TIP3      1429            0.0000000000
     26607      1621  TIP3      H2             31.9354937906      -14.5255069030       29.9187086359  TIP3      1429            0.0000000000
     26608      1622  TIP3      OH2            25.0748558721      -10.6661871199       21.6383210485  TIP3      1430            0.0000000000
     26609      1622  TIP3      H1             24.1814377046      -10.8110946014       21.3000829392  TIP3      1430            0.0000000000
     26610      1622  TIP3      H2             25.5397653580      -11.4151472335       21.2346196437  TIP3      1430            0.0000000000
     26611      1623  TIP3      OH2            35.3226124018        0.8522034891       37.3961077770  TIP3      1431            0.0000000000
     26612      1623  TIP3      H1             35.2844953922        1.1578868620       36.4783830888  TIP3      1431            0.0000000000
     26613      1623  TIP3      H2             36.1607544038        1.2401527247       37.6910708270  TIP3      1431            0.0000000000
     26614      1624  TIP3      OH2            23.2159810452       -6.6914000412       36.7843756115  TIP3      1432            0.0000000000
     26615      1624  TIP3      H1             23.9633231471       -6.6358809046       37.4140843827  TIP3      1432            0.0000000000
     26616      1624  TIP3      H2             22.4325631891       -6.5888914300       37.3671228267  TIP3      1432            0.0000000000
     26617      1625  TIP3      OH2            29.2777726961      -10.7892465228       29.3554899808  TIP3      1433            0.0000000000
     26618      1625  TIP3      H1             29.8497991814      -11.4287553216       28.9166245278  TIP3      1433            0.0000000000
     26619      1625  TIP3      H2             28.9170664183      -11.3293414001       30.0695179473  TIP3      1433            0.0000000000
     26620      1626  TIP3      OH2            23.7451230112      -14.7570401631       25.9952407805  TIP3      1434            0.0000000000
     26621      1626  TIP3      H1             23.3350239191      -15.5136724809       26.4841148435  TIP3      1434            0.0000000000
     26622      1626  TIP3      H2             24.2766395570      -15.2330327839       25.3400750839  TIP3      1434            0.0000000000
     26623      1627  TIP3      OH2            28.1594724890      -12.5799491459       31.8276041305  TIP3      1435            0.0000000000
     26624      1627  TIP3      H1             27.3029408193      -12.1184377989       31.9291032997  TIP3      1435            0.0000000000
     26625      1627  TIP3      H2             28.6995025694      -12.1488035502       32.5141657585  TIP3      1435            0.0000000000
     26626      1628  TIP3      OH2            35.7009170960       -7.2022135610       32.5037718479  TIP3      1436            0.0000000000
     26627      1628  TIP3      H1             36.2615659205       -7.3027217649       31.6932669851  TIP3      1436            0.0000000000
     26628      1628  TIP3      H2             34.8191024046       -7.2668071416       32.0929281072  TIP3      1436            0.0000000000
     26629      1629  TIP3      OH2            30.4823817378       -6.0295572171       35.5011266695  TIP3      1437            0.0000000000
     26630      1629  TIP3      H1             29.7471224350       -6.6471285278       35.5513304890  TIP3      1437            0.0000000000
     26631      1629  TIP3      H2             30.0037134756       -5.1772830579       35.4183228327  TIP3      1437            0.0000000000
     26632      1630  TIP3      OH2            23.7473292742       -6.9004543435       29.3645902510  TIP3      1438            0.0000000000
     26633      1630  TIP3      H1             24.4356997173       -7.0819354715       28.6989436802  TIP3      1438            0.0000000000
     26634      1630  TIP3      H2             23.8032418347       -7.6837297169       29.9369569741  TIP3      1438            0.0000000000
     26635      1631  TIP3      OH2            20.4020543397       -8.8661820388       34.8098439944  TIP3      1439            0.0000000000
     26636      1631  TIP3      H1             20.3924568123       -9.5500561064       35.5062664827  TIP3      1439            0.0000000000
     26637      1631  TIP3      H2             19.9024166774       -9.2669953666       34.0728699409  TIP3      1439            0.0000000000
     26638      1632  TIP3      OH2            27.2921241099       -9.1708888205       36.6840293482  TIP3      1440            0.0000000000
     26639      1632  TIP3      H1             26.8244679674       -9.6638222788       35.9832703367  TIP3      1440            0.0000000000
     26640      1632  TIP3      H2             28.1755698600       -9.5854624083       36.6385474956  TIP3      1440            0.0000000000
     26641      1633  TIP3      OH2            32.6821621592       -3.6127419286       35.1201727665  TIP3      1441            0.0000000000
     26642      1633  TIP3      H1             31.8649438809       -3.8383160084       34.6678574560  TIP3      1441            0.0000000000
     26643      1633  TIP3      H2             32.3252584245       -3.2769803008       35.9701052246  TIP3      1441            0.0000000000
     26644      1634  TIP3      OH2            33.2469424946       -7.8828964164       30.7580297471  TIP3      1442            0.0000000000
     26645      1634  TIP3      H1             32.3352827475       -8.0817959149       30.4995359958  TIP3      1442            0.0000000000
     26646      1634  TIP3      H2             33.7293655078       -8.6622254854       30.3953178129  TIP3      1442            0.0000000000
     26647      1635  TIP3      OH2            25.9484138932       -3.5175096325       26.9464970505  TIP3      1443            0.0000000000
     26648      1635  TIP3      H1             26.4289549785       -2.7818733174       26.5238761095  TIP3      1443            0.0000000000
     26649      1635  TIP3      H2             25.0303105994       -3.2922919888       26.7336995228  TIP3      1443            0.0000000000
     26650      1636  TIP3      OH2            21.9231353219      -10.0164813737       21.3886914756  TIP3      1444            0.0000000000
     26651      1636  TIP3      H1             22.4789055675       -9.5836046855       22.0497711303  TIP3      1444            0.0000000000
     26652      1636  TIP3      H2             21.0184477230       -9.8293144479       21.6960060221  TIP3      1444            0.0000000000
     26653      1637  TIP3      OH2            27.3644717598       -5.8331990697       26.3809808535  TIP3      1445            0.0000000000
     26654      1637  TIP3      H1             26.7980572273       -5.0483765023       26.5277298553  TIP3      1445            0.0000000000
     26655      1637  TIP3      H2             26.7592771215       -6.5792930949       26.5396465680  TIP3      1445            0.0000000000
     26656      1638  TIP3      OH2            27.7266462991       -1.7916128199       33.3466047855  TIP3      1446            0.0000000000
     26657      1638  TIP3      H1             28.4399249555       -1.3074923998       32.9042222464  TIP3      1446            0.0000000000
     26658      1638  TIP3      H2             28.2530040217       -2.2666718413       34.0129522812  TIP3      1446            0.0000000000
     26659      1639  TIP3      OH2            26.1186045434       -0.9097215941       25.8004182661  TIP3      1447            0.0000000000
     26660      1639  TIP3      H1             25.1597070732       -0.8475642354       25.9227106195  TIP3      1447            0.0000000000
     26661      1639  TIP3      H2             26.3948261804       -0.0277800138       26.1396221187  TIP3      1447            0.0000000000
     26662      1640  TIP3      OH2            31.1879008823       -5.9217116723       32.4899908657  TIP3      1448            0.0000000000
     26663      1640  TIP3      H1             31.1601222606       -6.2736928996       33.4012549287  TIP3      1448            0.0000000000
     26664      1640  TIP3      H2             31.7641601777       -6.5811258974       32.0489204175  TIP3      1448            0.0000000000
     26665      1641  TIP3      OH2            34.6388699527       -1.4510791108       34.7504611579  TIP3      1449            0.0000000000
     26666      1641  TIP3      H1             33.8123591174       -1.9710973515       34.8159583453  TIP3      1449            0.0000000000
     26667      1641  TIP3      H2             34.4342202374       -0.8219889362       34.0274867858  TIP3      1449            0.0000000000
     26668      1642  TIP3      OH2            22.1112623335      -13.6356474024       34.2253436729  TIP3      1450            0.0000000000
     26669      1642  TIP3      H1             21.2850860909      -13.1787621426       33.9563292708  TIP3      1450            0.0000000000
     26670      1642  TIP3      H2             22.1216706988      -13.3862434541       35.1683528387  TIP3      1450            0.0000000000
     26671      1643  TIP3      OH2            21.8810036404       -2.1630467105       32.5714040312  TIP3      1451            0.0000000000
     26672      1643  TIP3      H1             22.5125936268       -2.8658518266       32.7988248727  TIP3      1451            0.0000000000
     26673      1643  TIP3      H2             22.0093974267       -1.5482787954       33.3070927320  TIP3      1451            0.0000000000
     26674      1644  TIP3      OH2            23.2523419274       -6.8559539628       23.3220980177  TIP3      1452            0.0000000000
     26675      1644  TIP3      H1             22.8966375413       -6.3711697561       24.0777134301  TIP3      1452            0.0000000000
     26676      1644  TIP3      H2             23.7319204315       -6.1294765456       22.8610080481  TIP3      1452            0.0000000000
     26677      1645  TIP3      OH2            30.8064936403      -13.9735878630       33.4877967411  TIP3      1453            0.0000000000
     26678      1645  TIP3      H1             31.7301103068      -13.7523413153       33.6922915838  TIP3      1453            0.0000000000
     26679      1645  TIP3      H2             30.7061382719      -14.9209377689       33.7201339820  TIP3      1453            0.0000000000
     26680      1646  TIP3      OH2            29.1898354713      -13.0158348748       25.3180516227  TIP3      1454            0.0000000000
     26681      1646  TIP3      H1             29.7670543397      -12.2379067512       25.2534466284  TIP3      1454            0.0000000000
     26682      1646  TIP3      H2             29.0381886064      -13.1060961790       26.2774303686  TIP3      1454            0.0000000000
     26683      1647  TIP3      OH2            29.9278669641      -11.5492951479       34.1570858519  TIP3      1455            0.0000000000
     26684      1647  TIP3      H1             30.1254626385      -11.3281322804       35.0878840586  TIP3      1455            0.0000000000
     26685      1647  TIP3      H2             30.2935188959      -12.4610169207       34.0615440105  TIP3      1455            0.0000000000
     26686      1648  TIP3      OH2            29.7164129813      -15.8362276819       26.1395836002  TIP3      1456            0.0000000000
     26687      1648  TIP3      H1             29.4178031074      -15.3448787698       26.9351407789  TIP3      1456            0.0000000000
     26688      1648  TIP3      H2             30.2872992381      -15.1468520282       25.7576544808  TIP3      1456            0.0000000000
     26689      1649  TIP3      OH2            36.0003248408      -14.1732618631       35.1336401453  TIP3      1457            0.0000000000
     26690      1649  TIP3      H1             35.0713667236      -13.8893715531       35.2185102115  TIP3      1457            0.0000000000
     26691      1649  TIP3      H2             36.1532017519      -13.9572475481       34.1995847943  TIP3      1457            0.0000000000
     26692      1650  TIP3      OH2            34.6458595276       -9.9159897957       29.6303819397  TIP3      1458            0.0000000000
     26693      1650  TIP3      H1             33.9024416122      -10.2690414590       29.0855801042  TIP3      1458            0.0000000000
     26694      1650  TIP3      H2             35.1636061832      -10.7247577446       29.7617609800  TIP3      1458            0.0000000000
     26695      1651  TIP3      OH2            23.8232910878       -4.7137183394       21.8337211439  TIP3      1459            0.0000000000
     26696      1651  TIP3      H1             24.2791959010       -3.9003671341       22.1070978164  TIP3      1459            0.0000000000
     26697      1651  TIP3      H2             24.3751882341       -4.9844103252       21.0879414066  TIP3      1459            0.0000000000
     26698      1652  TIP3      OH2            36.0743890579       -0.5547131964       31.2434677001  TIP3      1460            0.0000000000
     26699      1652  TIP3      H1             35.8959533684        0.0605554207       30.5019591760  TIP3      1460            0.0000000000
     26700      1652  TIP3      H2             37.0395968213       -0.6192860398       31.1825158101  TIP3      1460            0.0000000000
     26701      1653  TIP3      OH2            22.6202248096      -16.8271854917       30.0032622471  TIP3      1461            0.0000000000
     26702      1653  TIP3      H1             22.6658106389      -16.9922195664       29.0343237144  TIP3      1461            0.0000000000
     26703      1653  TIP3      H2             22.4453410962      -17.7568420020       30.3052868772  TIP3      1461            0.0000000000
     26704      1654  TIP3      OH2            21.5487197334       -3.1669407330       25.4695580833  TIP3      1462            0.0000000000
     26705      1654  TIP3      H1             21.7503912685       -2.3493620109       24.9548666618  TIP3      1462            0.0000000000
     26706      1654  TIP3      H2             22.3000991511       -3.1642139708       26.0823696739  TIP3      1462            0.0000000000
     26707      1655  TIP3      OH2            20.9138479184       -0.0851567109       37.2057049862  TIP3      1463            0.0000000000
     26708      1655  TIP3      H1             21.5796437235       -0.2385697884       37.9161858601  TIP3      1463            0.0000000000
     26709      1655  TIP3      H2             20.4830169166       -0.9552943531       37.1542666611  TIP3      1463            0.0000000000
     26710      1656  TIP3      OH2            25.7885568605       -1.7558196932       38.9815065893  TIP3      1464            0.0000000000
     26711      1656  TIP3      H1             26.7184541187       -2.0215642524       39.0180335877  TIP3      1464            0.0000000000
     26712      1656  TIP3      H2             25.4793221645       -2.2363362356       38.1878488338  TIP3      1464            0.0000000000
     26713      1657  TIP3      OH2            31.9024589843       -2.7432448576       37.5505891256  TIP3      1465            0.0000000000
     26714      1657  TIP3      H1             31.7222010387       -3.6407227801       37.9180990216  TIP3      1465            0.0000000000
     26715      1657  TIP3      H2             32.8050033840       -2.6369469716       37.9209407173  TIP3      1465            0.0000000000
     26716      1658  TIP3      OH2            20.7281040519       -6.7397718375       38.2052130718  TIP3      1466            0.0000000000
     26717      1658  TIP3      H1             20.2565109869       -7.5823158299       38.1420122347  TIP3      1466            0.0000000000
     26718      1658  TIP3      H2             20.3450529252       -6.2580726217       37.4352776345  TIP3      1466            0.0000000000
     26719      1659  TIP3      OH2            27.5292209548       -6.4336739680       36.8749683052  TIP3      1467            0.0000000000
     26720      1659  TIP3      H1             27.2318749321       -5.8231449916       36.1606536335  TIP3      1467            0.0000000000
     26721      1659  TIP3      H2             27.3239130112       -7.3430914509       36.5533367974  TIP3      1467            0.0000000000
     26722      1660  TIP3      OH2            33.1869109217       -6.6169202385       34.8610471386  TIP3      1468            0.0000000000
     26723      1660  TIP3      H1             33.9472336566       -6.0016471034       35.0095645380  TIP3      1468            0.0000000000
     26724      1660  TIP3      H2             32.4301991457       -6.0394459835       35.0806725041  TIP3      1468            0.0000000000
     26725      1661  TIP3      OH2            22.5272620318       -9.4762865098       37.4503659800  TIP3      1469            0.0000000000
     26726      1661  TIP3      H1             23.4550938103       -9.2838747493       37.2761361466  TIP3      1469            0.0000000000
     26727      1661  TIP3      H2             22.3887518319       -8.8002763206       38.1455378441  TIP3      1469            0.0000000000
     26728      1662  TIP3      OH2            26.5534988399       -8.2356174095       22.7865501447  TIP3      1470            0.0000000000
     26729      1662  TIP3      H1             25.9858057843       -8.9473362498       23.1008766361  TIP3      1470            0.0000000000
     26730      1662  TIP3      H2             27.0330119331       -8.7191064028       22.0868132923  TIP3      1470            0.0000000000
     26731      1663  TIP3      OH2            25.6131196460      -10.0621555010       34.6751837940  TIP3      1471            0.0000000000
     26732      1663  TIP3      H1             24.8269851479       -9.5453583826       34.4108648172  TIP3      1471            0.0000000000
     26733      1663  TIP3      H2             26.2942767650       -9.6539929152       34.1003489523  TIP3      1471            0.0000000000
     26734      1664  TIP3      OH2            27.8209506812       -9.6820425161       20.7076734295  TIP3      1472            0.0000000000
     26735      1664  TIP3      H1             26.9972801900       -9.8409441592       20.2118364331  TIP3      1472            0.0000000000
     26736      1664  TIP3      H2             28.2221213804      -10.5604891594       20.7675355055  TIP3      1472            0.0000000000
     26737      1665  TIP3      OH2            30.6549592750       -7.7481049353       38.4027366034  TIP3      1473            0.0000000000
     26738      1665  TIP3      H1             31.4319836827       -7.9537494123       37.8347734111  TIP3      1473            0.0000000000
     26739      1665  TIP3      H2             30.4691527253       -8.6153806657       38.7972755184  TIP3      1473            0.0000000000
     26740      1666  TIP3      OH2            26.5796071727      -12.4532849221       35.5888444984  TIP3      1474            0.0000000000
     26741      1666  TIP3      H1             26.6852337359      -13.1431771125       34.8885556260  TIP3      1474            0.0000000000
     26742      1666  TIP3      H2             26.4915695051      -11.6473571199       35.0414553576  TIP3      1474            0.0000000000
     26743      1667  TIP3      OH2            26.8301050732      -14.2932519943       33.5903673718  TIP3      1475            0.0000000000
     26744      1667  TIP3      H1             27.4236741158      -13.9869894773       32.8718447388  TIP3      1475            0.0000000000
     26745      1667  TIP3      H2             25.9378305342      -14.1579650333       33.2083431537  TIP3      1475            0.0000000000
     26746      1668  TIP3      OH2            27.7149957517       -8.7310193639       33.5077405270  TIP3      1476            0.0000000000
     26747      1668  TIP3      H1             28.5929498216       -8.6444577104       33.1011637176  TIP3      1476            0.0000000000
     26748      1668  TIP3      H2             27.2157194569       -7.9975440821       33.0927040134  TIP3      1476            0.0000000000
     26749      1669  TIP3      OH2            32.8390529601      -11.0739066224       38.7465927207  TIP3      1477            0.0000000000
     26750      1669  TIP3      H1             32.5960511168      -11.9226005207       38.3518887370  TIP3      1477            0.0000000000
     26751      1669  TIP3      H2             33.7188711210      -10.9614564602       38.3526860397  TIP3      1477            0.0000000000
     26752      1670  TIP3      OH2            33.2431052655       -7.9416085902       37.2661811980  TIP3      1478            0.0000000000
     26753      1670  TIP3      H1             33.1955407761       -7.3333263809       36.4966089105  TIP3      1478            0.0000000000
     26754      1670  TIP3      H2             33.9458717449       -8.5337095726       36.9458679232  TIP3      1478            0.0000000000
     26755      1671  TIP3      OH2            24.6367415432      -11.5095531358       38.0178131469  TIP3      1479            0.0000000000
     26756      1671  TIP3      H1             24.0079528160      -12.0346940302       37.4762836090  TIP3      1479            0.0000000000
     26757      1671  TIP3      H2             25.3703799092      -11.3883646673       37.3872107715  TIP3      1479            0.0000000000
     26758      1672  TIP3      OH2            27.5205465365      -16.9664422672       33.7303414696  TIP3      1480            0.0000000000
     26759      1672  TIP3      H1             27.1282690541      -16.0651324342       33.7846097022  TIP3      1480            0.0000000000
     26760      1672  TIP3      H2             26.7692685385      -17.4902038356       33.4082785578  TIP3      1480            0.0000000000
     26761      1673  TIP3      OH2            28.6712904514      -12.7629272861       37.8117282331  TIP3      1481            0.0000000000
     26762      1673  TIP3      H1             28.0962269479      -12.8881290770       38.5880100559  TIP3      1481            0.0000000000
     26763      1673  TIP3      H2             28.0207911963      -12.8836829085       37.1022225171  TIP3      1481            0.0000000000
     26764      1674  TIP3      OH2            31.5225100277      -13.4631093765       36.7137773080  TIP3      1482            0.0000000000
     26765      1674  TIP3      H1             30.6420327418      -13.8423291751       36.8452562690  TIP3      1482            0.0000000000
     26766      1674  TIP3      H2             32.1022130871      -14.1149185986       37.1749640188  TIP3      1482            0.0000000000
     26767      1675  TIP3      OH2            33.1843339989      -15.0479414071       38.2178079070  TIP3      1483            0.0000000000
     26768      1675  TIP3      H1             32.8519356238      -15.9676278016       38.3338684907  TIP3      1483            0.0000000000
     26769      1675  TIP3      H2             32.9989657674      -14.6189251871       39.0982113616  TIP3      1483            0.0000000000
     26770      1676  TIP3      OH2            22.8062766084      -13.6604450092       37.5044554423  TIP3      1484            0.0000000000
     26771      1676  TIP3      H1             23.0780519758      -14.5520603597       37.2469532205  TIP3      1484            0.0000000000
     26772      1676  TIP3      H2             22.5497053236      -13.8170581637       38.4467858497  TIP3      1484            0.0000000000
     26773      1677  TIP3      OH2            27.4328517557      -17.7048907826       36.8684073507  TIP3      1485            0.0000000000
     26774      1677  TIP3      H1             28.1891407799      -18.3270763978       36.7789461334  TIP3      1485            0.0000000000
     26775      1677  TIP3      H2             27.5063823641      -17.2855355529       36.0038885528  TIP3      1485            0.0000000000
     26776      1678  TIP3      OH2            27.3766549921      -16.3662781459       39.2811268568  TIP3      1486            0.0000000000
     26777      1678  TIP3      H1             27.3074520906      -16.8675539181       38.4366777260  TIP3      1486            0.0000000000
     26778      1678  TIP3      H2             27.1576366755      -15.4538279671       38.9913428586  TIP3      1486            0.0000000000
     26779      1679  TIP3      OH2            19.6180991496        0.6870546932       26.3971096892  TIP3      1487            0.0000000000
     26780      1679  TIP3      H1             18.9942652917        0.0379834862       26.0410584278  TIP3      1487            0.0000000000
     26781      1679  TIP3      H2             19.9908815072        0.2156611705       27.1614351677  TIP3      1487            0.0000000000
     26782      1680  TIP3      OH2            20.6815250502       -1.2654072281       28.2936858359  TIP3      1488            0.0000000000
     26783      1680  TIP3      H1             20.2711276283       -1.8019283812       29.0054781451  TIP3      1488            0.0000000000
     26784      1680  TIP3      H2             21.3178668056       -0.7910507000       28.8751716395  TIP3      1488            0.0000000000
     26785      1681  TIP3      OH2            35.6967739757       -5.4389853045       38.3865159895  TIP3      1489            0.0000000000
     26786      1681  TIP3      H1             35.2518733761       -5.2332397695       39.2258392888  TIP3      1489            0.0000000000
     26787      1681  TIP3      H2             36.0858984454       -4.5836691347       38.1476631968  TIP3      1489            0.0000000000
     26788      1682  TIP3      OH2            36.0839831624       -3.2476779530       33.2684971717  TIP3      1490            0.0000000000
     26789      1682  TIP3      H1             35.4908786458       -2.5728813098       33.6530429349  TIP3      1490            0.0000000000
     26790      1682  TIP3      H2             35.6820050245       -3.4281404936       32.3981177445  TIP3      1490            0.0000000000
     26791      1683  TIP3      OH2            36.0235636526      -11.2022456901       21.0074785237  TIP3      1491            0.0000000000
     26792      1683  TIP3      H1             36.0549713494      -10.3072582361       21.3863387668  TIP3      1491            0.0000000000
     26793      1683  TIP3      H2             36.3334701636      -11.0037014410       20.1188137197  TIP3      1491            0.0000000000
     26794      1684  TIP3      OH2            35.5375826177       -9.1081465385       26.6645392013  TIP3      1492            0.0000000000
     26795      1684  TIP3      H1             34.9517946674       -9.8707647214       26.5891283748  TIP3      1492            0.0000000000
     26796      1684  TIP3      H2             35.4159787887       -8.8341921965       27.5931467651  TIP3      1492            0.0000000000
     26797      1685  TIP3      OH2            20.6800337970       -7.7139524280       30.6278319745  TIP3      1493            0.0000000000
     26798      1685  TIP3      H1             20.5051007171       -8.1728383228       29.7744526721  TIP3      1493            0.0000000000
     26799      1685  TIP3      H2             21.5888407505       -8.0479563450       30.8306103944  TIP3      1493            0.0000000000
     26800      1686  TIP3      OH2           -36.9957719994       -8.2844382957       36.5232741959  TIP3      1494            0.0000000000
     26801      1686  TIP3      H1            -36.0762562636       -8.4712967947       36.8346795935  TIP3      1494            0.0000000000
     26802      1686  TIP3      H2            -36.9434119430       -7.4010668144       36.1315438497  TIP3      1494            0.0000000000
     26803      1687  TIP3      OH2            35.3419662520      -14.1576433656       19.7829016061  TIP3      1495            0.0000000000
     26804      1687  TIP3      H1             35.2106102983      -13.4106462111       20.3951845285  TIP3      1495            0.0000000000
     26805      1687  TIP3      H2             34.6064967360      -14.7754260740       20.0344669810  TIP3      1495            0.0000000000
     26806      1688  TIP3      OH2            35.2749170456      -12.8295539301       25.0525714237  TIP3      1496            0.0000000000
     26807      1688  TIP3      H1             35.0980111256      -13.7366725275       25.3644598344  TIP3      1496            0.0000000000
     26808      1688  TIP3      H2             35.6409482966      -13.0118939742       24.1731291667  TIP3      1496            0.0000000000
     26809      1689  TIP3      OH2            35.8986707131      -12.4980878959       30.6805378137  TIP3      1497            0.0000000000
     26810      1689  TIP3      H1             36.6643815343      -12.4859799931       30.0713563106  TIP3      1497            0.0000000000
     26811      1689  TIP3      H2             36.1705603793      -11.8129529481       31.3202536428  TIP3      1497            0.0000000000
     26812      1690  TIP3      OH2            35.8160671292      -11.1378014935       33.7064895872  TIP3      1498            0.0000000000
     26813      1690  TIP3      H1             34.9040499302      -10.8037925117       33.7736149827  TIP3      1498            0.0000000000
     26814      1690  TIP3      H2             36.1337644948      -10.6330387627       32.9356724818  TIP3      1498            0.0000000000
     26815      1691  TIP3      OH2            20.5477927684      -12.5513063595       36.6731838410  TIP3      1499            0.0000000000
     26816      1691  TIP3      H1             21.3703868069      -12.9978115697       36.9922680124  TIP3      1499            0.0000000000
     26817      1691  TIP3      H2             19.8996475836      -13.2993810678       36.7033503621  TIP3      1499            0.0000000000
     26818      1692  TIP3      OH2            35.1586333507      -15.5029467478       25.3723324684  TIP3      1500            0.0000000000
     26819      1692  TIP3      H1             36.0731755983      -15.4047923951       25.7111480025  TIP3      1500            0.0000000000
     26820      1692  TIP3      H2             35.2630241695      -16.0778707405       24.6008609487  TIP3      1500            0.0000000000
     26821      1693  TIP3      OH2            21.5903839419      -14.5039902292       30.6524493406  TIP3      1501            0.0000000000
     26822      1693  TIP3      H1             21.8631858987      -15.3817157182       30.2992691554  TIP3      1501            0.0000000000
     26823      1693  TIP3      H2             22.1997802538      -13.9026981901       30.2007955103  TIP3      1501            0.0000000000
     26824      1694  TIP3      OH2            20.1391666332      -11.4420109887       30.7948018067  TIP3      1502            0.0000000000
     26825      1694  TIP3      H1             20.5745245101      -11.4395255395       29.9136431725  TIP3      1502            0.0000000000
     26826      1694  TIP3      H2             20.5729627464      -10.6763927439       31.1918219379  TIP3      1502            0.0000000000
     26827      1695  TIP3      OH2            20.0569953131      -15.0555778924       24.8763537241  TIP3      1503            0.0000000000
     26828      1695  TIP3      H1             19.1002497979      -14.8716064396       24.8933080289  TIP3      1503            0.0000000000
     26829      1695  TIP3      H2             20.2755361675      -14.7816313175       23.9691817560  TIP3      1503            0.0000000000
     26830      1696  TIP3      OH2            34.6791738342       -0.2172925173       26.8282188936  TIP3      1504            0.0000000000
     26831      1696  TIP3      H1             35.2362793164       -0.9561663823       26.5318863296  TIP3      1504            0.0000000000
     26832      1696  TIP3      H2             35.2638899901        0.2275151502       27.4659615609  TIP3      1504            0.0000000000
     26833      1697  TIP3      OH2            19.2391348059      -16.6795855154       32.1640283221  TIP3      1505            0.0000000000
     26834      1697  TIP3      H1             18.2859220148      -16.7805932088       32.3517446053  TIP3      1505            0.0000000000
     26835      1697  TIP3      H2             19.1737936478      -15.9870521261       31.4611014406  TIP3      1505            0.0000000000
     26836      1698  TIP3      OH2            22.2990738619       -3.4936614226       37.0363307149  TIP3      1506            0.0000000000
     26837      1698  TIP3      H1             21.5439696768       -3.0636888547       36.6050738439  TIP3      1506            0.0000000000
     26838      1698  TIP3      H2             22.0850899273       -3.4104804494       37.9685045270  TIP3      1506            0.0000000000
     26839      1699  TIP3      OH2            25.1074028336       -1.7633654056       33.9223253245  TIP3      1507            0.0000000000
     26840      1699  TIP3      H1             25.0785395838       -0.9232815969       33.4084686269  TIP3      1507            0.0000000000
     26841      1699  TIP3      H2             26.0570039263       -1.9883209845       33.7828263577  TIP3      1507            0.0000000000
     26842      1700  TIP3      OH2            29.2916835031       -0.6863112236       36.2875683440  TIP3      1508            0.0000000000
     26843      1700  TIP3      H1             29.3647652007       -0.9634961974       37.2258965366  TIP3      1508            0.0000000000
     26844      1700  TIP3      H2             30.2369450938       -0.5926608818       36.0537378198  TIP3      1508            0.0000000000
     26845      1701  TIP3      OH2            31.7111576043        0.8859564653       35.9597070677  TIP3      1509            0.0000000000
     26846      1701  TIP3      H1             32.5067764511        0.7836613591       35.4089476239  TIP3      1509            0.0000000000
     26847      1701  TIP3      H2             32.0305022465        1.2052162643       36.8268744604  TIP3      1509            0.0000000000
     26848      1702  TIP3      OH2            22.5347077499        1.2668747294       33.3932299380  TIP3      1510            0.0000000000
     26849      1702  TIP3      H1             21.8253304270        1.8730262735       33.0811794890  TIP3      1510            0.0000000000
     26850      1702  TIP3      H2             22.4720741546        1.3684069945       34.3546247877  TIP3      1510            0.0000000000
     26851      1703  TIP3      OH2            24.8377994167        0.4630224182       32.4216604176  TIP3      1511            0.0000000000
     26852      1703  TIP3      H1             23.9669757736        0.8202659573       32.7285002783  TIP3      1511            0.0000000000
     26853      1703  TIP3      H2             25.0226855591        1.0195079857       31.6492882878  TIP3      1511            0.0000000000
     26854      1704  TIP3      OH2            30.1284823812        0.2478969603       31.5029630031  TIP3      1512            0.0000000000
     26855      1704  TIP3      H1             29.3339179304        0.5377214621       31.0396686159  TIP3      1512            0.0000000000
     26856      1704  TIP3      H2             30.1545660799        0.8830224197       32.2449806601  TIP3      1512            0.0000000000
     26857      1705  TIP3      OH2            31.8325690374       -1.0416268562       33.1213244752  TIP3      1513            0.0000000000
     26858      1705  TIP3      H1             31.1996142199       -0.6614526288       32.4763078432  TIP3      1513            0.0000000000
     26859      1705  TIP3      H2             32.5756537113       -0.4190578963       32.9916742976  TIP3      1513            0.0000000000
     26860      1706  TIP3      OH2            34.1253021267        0.5045210067       32.7596757451  TIP3      1514            0.0000000000
     26861      1706  TIP3      H1             34.6676388863        1.2499907483       33.0616500394  TIP3      1514            0.0000000000
     26862      1706  TIP3      H2             34.7680410222        0.1044570307       32.1224046999  TIP3      1514            0.0000000000
     26863      1707  TIP3      OH2            22.1491727171       -0.3899883179       30.3056712687  TIP3      1515            0.0000000000
     26864      1707  TIP3      H1             22.0043382758       -0.9069912511       31.1249582542  TIP3      1515            0.0000000000
     26865      1707  TIP3      H2             23.0394006146       -0.7293059777       30.0512197740  TIP3      1515            0.0000000000
     26866      1708  TIP3      OH2            24.4402652794       -1.4572168073       29.2574813423  TIP3      1516            0.0000000000
     26867      1708  TIP3      H1             24.2864540553       -2.3921527166       29.5383101469  TIP3      1516            0.0000000000
     26868      1708  TIP3      H2             25.3892789795       -1.3677785487       29.4992893822  TIP3      1516            0.0000000000
     26869      1709  TIP3      OH2            26.8140818400       -1.5271316333       30.5366010387  TIP3      1517            0.0000000000
     26870      1709  TIP3      H1             27.0247155769       -2.4753666996       30.4318779597  TIP3      1517            0.0000000000
     26871      1709  TIP3      H2             26.7286827914       -1.4430891775       31.5022636898  TIP3      1517            0.0000000000
     26872      1710  TIP3      OH2            29.9568560949      -16.2460893359       29.0734803506  TIP3      1518            0.0000000000
     26873      1710  TIP3      H1             29.1753516069      -16.8364043210       29.1463318428  TIP3      1518            0.0000000000
     26874      1710  TIP3      H2             30.7049062393      -16.8568944231       29.1234075372  TIP3      1518            0.0000000000
     26875      1711  TIP3      OH2            35.4401448380      -17.7471045922       29.1761696158  TIP3      1519            0.0000000000
     26876      1711  TIP3      H1             35.8186399977      -17.0006982481       28.6710657915  TIP3      1519            0.0000000000
     26877      1711  TIP3      H2             34.4958494973      -17.4830639848       29.1601687764  TIP3      1519            0.0000000000
     26878      1712  TIP3      OH2            22.6331640036      -16.8732759891       27.2226272243  TIP3      1520            0.0000000000
     26879      1712  TIP3      H1             21.7032744499      -16.9842388538       26.9634250046  TIP3      1520            0.0000000000
     26880      1712  TIP3      H2             23.0069607507      -17.7545999179       27.0106342956  TIP3      1520            0.0000000000
     26881      1713  TIP3      OH2            21.2832670977      -16.6751933311       22.1218361355  TIP3      1521            0.0000000000
     26882      1713  TIP3      H1             22.2502864168      -16.5545677612       22.0261768102  TIP3      1521            0.0000000000
     26883      1713  TIP3      H2             21.2081284022      -17.0938168915       22.9871930171  TIP3      1521            0.0000000000
     26884      1714  TIP3      OH2            27.2041809195      -16.6502780919       26.7249910358  TIP3      1522            0.0000000000
     26885      1714  TIP3      H1             28.1326118572      -16.5075439205       26.4696627800  TIP3      1522            0.0000000000
     26886      1714  TIP3      H2             27.2887164814      -16.9022591915       27.6528092072  TIP3      1522            0.0000000000
     26887      1715  TIP3      OH2            32.9082553523      -17.1188023069       28.5057849776  TIP3      1523            0.0000000000
     26888      1715  TIP3      H1             32.8244227383      -16.8514702793       27.5807408275  TIP3      1523            0.0000000000
     26889      1715  TIP3      H2             32.3597382790      -17.9386178925       28.5277145002  TIP3      1523            0.0000000000
     26890      1716  TIP3      OH2            34.3733804155      -17.5395877104       23.6300170896  TIP3      1524            0.0000000000
     26891      1716  TIP3      H1             33.8640980598      -16.7899905010       23.9632448751  TIP3      1524            0.0000000000
     26892      1716  TIP3      H2             33.8477906955      -18.2812569350       24.0090944614  TIP3      1524            0.0000000000
     26893      1717  TIP3      OH2            21.3940975035       -0.8728532355       23.8688215579  TIP3      1525            0.0000000000
     26894      1717  TIP3      H1             20.6414355465       -0.9697286841       23.2737403977  TIP3      1525            0.0000000000
     26895      1717  TIP3      H2             21.5748752702        0.0860959328       23.7339808788  TIP3      1525            0.0000000000
     26896      1718  TIP3      OH2            28.7800232154      -15.0885499605       23.3033134430  TIP3      1526            0.0000000000
     26897      1718  TIP3      H1             28.7892890931      -15.7438284069       24.0077875342  TIP3      1526            0.0000000000
     26898      1718  TIP3      H2             28.7253833455      -14.2568398664       23.8164379305  TIP3      1526            0.0000000000
     26899      1719  TIP3      OH2            22.1564240230      -16.4020655593       36.3072436773  TIP3      1527            0.0000000000
     26900      1719  TIP3      H1             21.7291153128      -17.2799946542       36.4048268328  TIP3      1527            0.0000000000
     26901      1719  TIP3      H2             22.9837065052      -16.5563067848       36.8115847687  TIP3      1527            0.0000000000
     26902      1720  TIP3      OH2            24.1856258738      -17.0889223300       38.0759670478  TIP3      1528            0.0000000000
     26903      1720  TIP3      H1             25.0918900742      -17.4234662145       37.9796798152  TIP3      1528            0.0000000000
     26904      1720  TIP3      H2             23.7722599513      -17.8228654748       38.5726087127  TIP3      1528            0.0000000000
     26905      1721  TIP3      OH2            22.6736962683        0.0105657266       20.9433277476  TIP3      1529            0.0000000000
     26906      1721  TIP3      H1             22.2726421706        0.3022871468       21.7905581009  TIP3      1529            0.0000000000
     26907      1721  TIP3      H2             23.2895582227       -0.6842085898       21.2092504898  TIP3      1529            0.0000000000
     26908      1722  TIP3      OH2            32.5678509290      -17.6863717839       38.3600633245  TIP3      1530            0.0000000000
     26909      1722  TIP3      H1             32.5263753840      -18.1088002200       39.2389859154  TIP3      1530            0.0000000000
     26910      1722  TIP3      H2             33.4995433797      -17.8348462804       38.0919703568  TIP3      1530            0.0000000000
     26911      1723  TIP3      OH2            36.0753465805       -1.8314036530       37.0406249969  TIP3      1531            0.0000000000
     26912      1723  TIP3      H1             35.7374252209       -2.0106095392       36.1326558567  TIP3      1531            0.0000000000
     26913      1723  TIP3      H2             35.9353893193       -0.8544861249       37.0473547436  TIP3      1531            0.0000000000
     26914      1724  TIP3      OH2           -24.3261747671       11.0535461398       26.6348077626  TIP3      1532            0.0000000000
     26915      1724  TIP3      H1            -24.3266788845       11.9872700266       26.9179812753  TIP3      1532            0.0000000000
     26916      1724  TIP3      H2            -25.1667596713       11.0010963396       26.1479089234  TIP3      1532            0.0000000000
     26917      1725  TIP3      OH2           -25.8537353703        9.9893513308       30.1021179374  TIP3      1533            0.0000000000
     26918      1725  TIP3      H1            -25.8822107532        9.5335783230       30.9736506475  TIP3      1533            0.0000000000
     26919      1725  TIP3      H2            -26.5100304690        9.4663170372       29.6081619800  TIP3      1533            0.0000000000
     26920      1726  TIP3      OH2           -33.5598226764        9.8316752473       31.6302244644  TIP3      1534            0.0000000000
     26921      1726  TIP3      H1            -33.7368889939        9.2568108144       32.3952090410  TIP3      1534            0.0000000000
     26922      1726  TIP3      H2            -32.7307554698       10.2839329096       31.8817461594  TIP3      1534            0.0000000000
     26923      1727  TIP3      OH2           -22.6893614688       12.9994791527       28.6568689571  TIP3      1535            0.0000000000
     26924      1727  TIP3      H1            -22.8499504927       12.2098927737       29.1939267606  TIP3      1535            0.0000000000
     26925      1727  TIP3      H2            -22.4293147969       13.6562264058       29.3238087735  TIP3      1535            0.0000000000
     26926      1728  TIP3      OH2           -32.8509384909       14.3240075942       30.1276445365  TIP3      1536            0.0000000000
     26927      1728  TIP3      H1            -33.1805807499       13.4201515864       29.9222014861  TIP3      1536            0.0000000000
     26928      1728  TIP3      H2            -31.9149139477       14.2156632846       29.8948309422  TIP3      1536            0.0000000000
     26929      1729  TIP3      OH2           -35.9889555203        7.9425750511       25.5867199078  TIP3      1537            0.0000000000
     26930      1729  TIP3      H1            -35.6816962336        8.7946882429       25.9158250408  TIP3      1537            0.0000000000
     26931      1729  TIP3      H2            -36.6660116057        7.7287190404       26.2528905611  TIP3      1537            0.0000000000
     26932      1730  TIP3      OH2           -35.7795728955        9.9421163394       28.3588548846  TIP3      1538            0.0000000000
     26933      1730  TIP3      H1            -35.2531261373        9.1868614494       28.7052603483  TIP3      1538            0.0000000000
     26934      1730  TIP3      H2            -35.1512442190       10.5042604404       27.8765338691  TIP3      1538            0.0000000000
     26935      1731  TIP3      OH2           -25.0196919314       18.5118718176       28.6000374544  TIP3      1539            0.0000000000
     26936      1731  TIP3      H1            -24.2073386334       18.0031599396       28.3647845396  TIP3      1539            0.0000000000
     26937      1731  TIP3      H2            -25.3939738225       17.9216148588       29.2661707713  TIP3      1539            0.0000000000
     26938      1732  TIP3      OH2           -27.6425028601       12.0671545881       30.7946183541  TIP3      1540            0.0000000000
     26939      1732  TIP3      H1            -27.1615964499       11.7051021577       30.0221991604  TIP3      1540            0.0000000000
     26940      1732  TIP3      H2            -26.9387274400       12.6138578949       31.1936219084  TIP3      1540            0.0000000000
     26941      1733  TIP3      OH2           -19.1792063085        4.2015677460       30.8291422327  TIP3      1541            0.0000000000
     26942      1733  TIP3      H1            -18.9293149137        4.6640816615       31.6506528860  TIP3      1541            0.0000000000
     26943      1733  TIP3      H2            -18.3111347315        4.1463308645       30.3916643681  TIP3      1541            0.0000000000
     26944      1734  TIP3      OH2           -24.0293493661        7.3462357393       31.3565732743  TIP3      1542            0.0000000000
     26945      1734  TIP3      H1            -23.8766801614        6.4083762716       31.5525815072  TIP3      1542            0.0000000000
     26946      1734  TIP3      H2            -24.4501355994        7.2798720381       30.4800036668  TIP3      1542            0.0000000000
     26947      1735  TIP3      OH2           -31.3414357637        5.1646126495       28.5706054698  TIP3      1543            0.0000000000
     26948      1735  TIP3      H1            -31.0699835691        5.9212571605       28.0091795226  TIP3      1543            0.0000000000
     26949      1735  TIP3      H2            -31.8210117417        4.6164670754       27.9261680613  TIP3      1543            0.0000000000
     26950      1736  TIP3      OH2           -24.1316768967        5.3048434891       27.0903559665  TIP3      1544            0.0000000000
     26951      1736  TIP3      H1            -23.4266670991        4.9272217225       27.6612767612  TIP3      1544            0.0000000000
     26952      1736  TIP3      H2            -23.6857654278        5.3665253978       26.2485980101  TIP3      1544            0.0000000000
     26953      1737  TIP3      OH2           -34.7211818264        7.5839602129       29.1473729074  TIP3      1545            0.0000000000
     26954      1737  TIP3      H1            -34.1302141053        7.0810251078       29.7370492101  TIP3      1545            0.0000000000
     26955      1737  TIP3      H2            -34.3219788229        7.3509602860       28.2851931631  TIP3      1545            0.0000000000
     26956      1738  TIP3      OH2           -29.8528491363        9.2639445183       28.3896076026  TIP3      1546            0.0000000000
     26957      1738  TIP3      H1            -29.0926130908        8.7941162486       28.7741810811  TIP3      1546            0.0000000000
     26958      1738  TIP3      H2            -30.2790491672        8.5370568832       27.8853314711  TIP3      1546            0.0000000000
     26959      1739  TIP3      OH2           -18.9394713017        5.5263596880       33.4303789319  TIP3      1547            0.0000000000
     26960      1739  TIP3      H1            -19.3069712326        6.3268882885       32.9841326757  TIP3      1547            0.0000000000
     26961      1739  TIP3      H2            -18.6771058668        5.8996843158       34.2852696550  TIP3      1547            0.0000000000
     26962      1740  TIP3      OH2           -32.3850618142        3.9653862292       32.1715465416  TIP3      1548            0.0000000000
     26963      1740  TIP3      H1            -33.0024650775        4.4966664203       31.6247526761  TIP3      1548            0.0000000000
     26964      1740  TIP3      H2            -32.9963246930        3.4236790029       32.7260493935  TIP3      1548            0.0000000000
     26965      1741  TIP3      OH2           -25.1490564957       13.7046425309       25.8534787195  TIP3      1549            0.0000000000
     26966      1741  TIP3      H1            -25.5794218740       13.6785830831       24.9677288686  TIP3      1549            0.0000000000
     26967      1741  TIP3      H2            -25.5409131814       14.5216434008       26.2390905721  TIP3      1549            0.0000000000
     26968      1742  TIP3      OH2           -30.1218333201       11.9677542951       32.0749070637  TIP3      1550            0.0000000000
     26969      1742  TIP3      H1            -30.5513670335       12.8437042957       32.2154671948  TIP3      1550            0.0000000000
     26970      1742  TIP3      H2            -29.3363508637       12.2312272060       31.5540325713  TIP3      1550            0.0000000000
     26971      1743  TIP3      OH2           -21.6712149690        4.6204896624       28.2891413720  TIP3      1551            0.0000000000
     26972      1743  TIP3      H1            -21.7721365972        4.3231193042       29.2069496313  TIP3      1551            0.0000000000
     26973      1743  TIP3      H2            -20.7542238005        4.9380177820       28.3417077464  TIP3      1551            0.0000000000
     26974      1744  TIP3      OH2           -33.0031142906        6.0352092839       30.4303753848  TIP3      1552            0.0000000000
     26975      1744  TIP3      H1            -32.4381834454        6.7305211052       30.8516498932  TIP3      1552            0.0000000000
     26976      1744  TIP3      H2            -32.3348020561        5.6351059293       29.8105560414  TIP3      1552            0.0000000000
     26977      1745  TIP3      OH2           -31.3142871037       14.1512199786       32.9240532725  TIP3      1553            0.0000000000
     26978      1745  TIP3      H1            -31.6273044919       14.7974111967       32.2789124801  TIP3      1553            0.0000000000
     26979      1745  TIP3      H2            -32.0948104672       14.1323324527       33.5290306829  TIP3      1553            0.0000000000
     26980      1746  TIP3      OH2           -35.4692477121       13.6117371284       23.8298781629  TIP3      1554            0.0000000000
     26981      1746  TIP3      H1            -35.3704917495       14.3136230960       23.1847992689  TIP3      1554            0.0000000000
     26982      1746  TIP3      H2            -35.1084647165       13.9827110541       24.6476871619  TIP3      1554            0.0000000000
     26983      1747  TIP3      OH2           -21.8685274703       15.0157626394       30.7581367652  TIP3      1555            0.0000000000
     26984      1747  TIP3      H1            -22.7659503727       15.3648113879       30.9567305290  TIP3      1555            0.0000000000
     26985      1747  TIP3      H2            -21.5492766267       15.7714357320       30.2437662092  TIP3      1555            0.0000000000
     26986      1748  TIP3      OH2           -21.8048346343        3.4787956419       32.1590619589  TIP3      1556            0.0000000000
     26987      1748  TIP3      H1            -22.5746918806        3.6367436876       31.5838483419  TIP3      1556            0.0000000000
     26988      1748  TIP3      H2            -21.0654864893        3.8185603401       31.6252748870  TIP3      1556            0.0000000000
     26989      1749  TIP3      OH2           -28.9661322716        1.2065180922       29.7074933673  TIP3      1557            0.0000000000
     26990      1749  TIP3      H1            -29.2965553639        0.3027188449       29.8380877610  TIP3      1557            0.0000000000
     26991      1749  TIP3      H2            -29.7496371724        1.7385690140       29.9895880758  TIP3      1557            0.0000000000
     26992      1750  TIP3      OH2           -23.2646925992       16.8172505637       27.5913881015  TIP3      1558            0.0000000000
     26993      1750  TIP3      H1            -23.1739185847       16.1734630217       26.8657234936  TIP3      1558            0.0000000000
     26994      1750  TIP3      H2            -22.5438798480       17.4558096840       27.3772760350  TIP3      1558            0.0000000000
     26995      1751  TIP3      OH2           -22.3741128620       14.6337486131       25.9285975779  TIP3      1559            0.0000000000
     26996      1751  TIP3      H1            -22.9357416675       14.1705408302       25.2871905142  TIP3      1559            0.0000000000
     26997      1751  TIP3      H2            -22.6145879832       14.1544568813       26.7424900004  TIP3      1559            0.0000000000
     26998      1752  TIP3      OH2           -20.9344387659       13.4964404446       34.6766616063  TIP3      1560            0.0000000000
     26999      1752  TIP3      H1            -20.8024496232       12.7626338528       34.0354868253  TIP3      1560            0.0000000000
     27000      1752  TIP3      H2            -20.7510783096       14.2514535567       34.0904325778  TIP3      1560            0.0000000000
     27001      1753  TIP3      OH2           -26.2945407264       10.4939757836       24.2495517598  TIP3      1561            0.0000000000
     27002      1753  TIP3      H1            -27.0445326447       11.1128310217       24.0527467123  TIP3      1561            0.0000000000
     27003      1753  TIP3      H2            -25.6186446635       10.8756038468       23.6820215276  TIP3      1561            0.0000000000
     27004      1754  TIP3      OH2           -26.4502260992        8.6652345202       21.5377640815  TIP3      1562            0.0000000000
     27005      1754  TIP3      H1            -25.6842105717        8.8124860361       22.1007150147  TIP3      1562            0.0000000000
     27006      1754  TIP3      H2            -26.1637712562        7.9405551118       20.9891111572  TIP3      1562            0.0000000000
     27007      1755  TIP3      OH2           -18.7999539264        9.9220012097       32.6123857883  TIP3      1563            0.0000000000
     27008      1755  TIP3      H1            -19.4955381818       10.5976910971       32.4991000076  TIP3      1563            0.0000000000
     27009      1755  TIP3      H2            -18.1917099481       10.1669271377       31.8858586893  TIP3      1563            0.0000000000
     27010      1756  TIP3      OH2           -22.1365727193       10.3014329863       25.3704212680  TIP3      1564            0.0000000000
     27011      1756  TIP3      H1            -22.9559731434       10.6171225517       25.8302987307  TIP3      1564            0.0000000000
     27012      1756  TIP3      H2            -21.6488952082        9.9063495988       26.1156969456  TIP3      1564            0.0000000000
     27013      1757  TIP3      OH2           -22.5384417803        8.6893964552       34.4363962042  TIP3      1565            0.0000000000
     27014      1757  TIP3      H1            -22.5997858684        9.6344127833       34.6589729524  TIP3      1565            0.0000000000
     27015      1757  TIP3      H2            -23.2979183114        8.6373639205       33.8316566105  TIP3      1565            0.0000000000
     27016      1758  TIP3      OH2           -31.3261196370       11.3518015866       27.2161277444  TIP3      1566            0.0000000000
     27017      1758  TIP3      H1            -31.7545311078       11.0227919668       26.3974823972  TIP3      1566            0.0000000000
     27018      1758  TIP3      H2            -30.7252952906       10.6006850398       27.4268042868  TIP3      1566            0.0000000000
     27019      1759  TIP3      OH2           -29.6185130492       14.4599264205       29.7810638804  TIP3      1567            0.0000000000
     27020      1759  TIP3      H1            -29.5502394136       14.4271949776       28.8094255903  TIP3      1567            0.0000000000
     27021      1759  TIP3      H2            -28.9152657583       13.8647079285       30.0716477628  TIP3      1567            0.0000000000
     27022      1760  TIP3      OH2           -30.8319427009        9.7964308607       30.7971548741  TIP3      1568            0.0000000000
     27023      1760  TIP3      H1            -30.5011766193        9.8124593351       29.8721306963  TIP3      1568            0.0000000000
     27024      1760  TIP3      H2            -30.4453644605       10.6146596699       31.1942105040  TIP3      1568            0.0000000000
     27025      1761  TIP3      OH2           -24.4053413695       15.7121393253       31.4597457774  TIP3      1569            0.0000000000
     27026      1761  TIP3      H1            -24.9674326184       16.1681772049       32.1030661144  TIP3      1569            0.0000000000
     27027      1761  TIP3      H2            -24.4736224872       14.7780265218       31.7503630272  TIP3      1569            0.0000000000
     27028      1762  TIP3      OH2           -29.9211927698       14.1025605504       35.3567815822  TIP3      1570            0.0000000000
     27029      1762  TIP3      H1            -30.6462069838       14.6165698935       35.7873619465  TIP3      1570            0.0000000000
     27030      1762  TIP3      H2            -30.2749006959       14.0054359013       34.4433716843  TIP3      1570            0.0000000000
     27031      1763  TIP3      OH2           -23.2475887572        9.4519363122       22.9474331473  TIP3      1571            0.0000000000
     27032      1763  TIP3      H1            -22.8711779694        9.8631997093       23.7602314882  TIP3      1571            0.0000000000
     27033      1763  TIP3      H2            -23.4626201984       10.2417338002       22.4344490561  TIP3      1571            0.0000000000
     27034      1764  TIP3      OH2           -32.6620878616       10.2963244334       34.6413344969  TIP3      1572            0.0000000000
     27035      1764  TIP3      H1            -32.4917206077       11.2294837343       34.8518235054  TIP3      1572            0.0000000000
     27036      1764  TIP3      H2            -33.5664829706       10.2456413791       35.0141419235  TIP3      1572            0.0000000000
     27037      1765  TIP3      OH2           -25.7871201169       16.2626831728       26.6227649881  TIP3      1573            0.0000000000
     27038      1765  TIP3      H1            -25.1668322183       16.7066196513       27.2258709537  TIP3      1573            0.0000000000
     27039      1765  TIP3      H2            -26.4679909950       16.9341987210       26.5069102072  TIP3      1573            0.0000000000
     27040      1766  TIP3      OH2           -31.3603078087       16.1840954351       36.3719497115  TIP3      1574            0.0000000000
     27041      1766  TIP3      H1            -31.5582471326       16.5625111423       35.4881263690  TIP3      1574            0.0000000000
     27042      1766  TIP3      H2            -32.2642051693       15.8916762301       36.6085722023  TIP3      1574            0.0000000000
     27043      1767  TIP3      OH2           -20.5154537518        1.6900654132       23.1618779597  TIP3      1575            0.0000000000
     27044      1767  TIP3      H1            -21.4623799198        1.4024029450       23.0677445370  TIP3      1575            0.0000000000
     27045      1767  TIP3      H2            -20.2568949842        1.7153793242       22.2289155307  TIP3      1575            0.0000000000
     27046      1768  TIP3      OH2           -32.3629560658        9.9315889390       25.0004598320  TIP3      1576            0.0000000000
     27047      1768  TIP3      H1            -32.0226770888       10.4058259089       24.2270304497  TIP3      1576            0.0000000000
     27048      1768  TIP3      H2            -32.1951343912        8.9988234643       24.7967876179  TIP3      1576            0.0000000000
     27049      1769  TIP3      OH2           -35.2528136496       12.4209126765       33.8199749194  TIP3      1577            0.0000000000
     27050      1769  TIP3      H1            -36.1925406554       12.6061382464       33.6984123865  TIP3      1577            0.0000000000
     27051      1769  TIP3      H2            -35.2286913838       11.4580251488       33.7412976715  TIP3      1577            0.0000000000
     27052      1770  TIP3      OH2           -35.5740793829       15.5933106299       29.8116153459  TIP3      1578            0.0000000000
     27053      1770  TIP3      H1            -34.7409580247       15.0877225406       29.8064221091  TIP3      1578            0.0000000000
     27054      1770  TIP3      H2            -35.8447628285       15.5156067130       30.7366156812  TIP3      1578            0.0000000000
     27055      1771  TIP3      OH2           -18.2356754206       16.0389299098       36.2121838668  TIP3      1579            0.0000000000
     27056      1771  TIP3      H1            -18.3383097985       15.0716812702       36.1690998605  TIP3      1579            0.0000000000
     27057      1771  TIP3      H2            -19.0787101158       16.2778131723       36.6678405653  TIP3      1579            0.0000000000
     27058      1772  TIP3      OH2           -27.4787265255       15.3363944666       35.4562939081  TIP3      1580            0.0000000000
     27059      1772  TIP3      H1            -27.4995100009       16.2090756306       35.8837867973  TIP3      1580            0.0000000000
     27060      1772  TIP3      H2            -28.4302195213       15.0968957260       35.3551726537  TIP3      1580            0.0000000000
     27061      1773  TIP3      OH2           -26.4885020319       19.2512992042       24.8020129394  TIP3      1581            0.0000000000
     27062      1773  TIP3      H1            -26.4113749507       19.3590583291       23.8469457613  TIP3      1581            0.0000000000
     27063      1773  TIP3      H2            -26.7235520116       20.1533705419       25.1037869297  TIP3      1581            0.0000000000
     27064      1774  TIP3      OH2           -32.8850118015       18.1214043857       26.7778965584  TIP3      1582            0.0000000000
     27065      1774  TIP3      H1            -32.8890118556       17.7403209239       27.6787340438  TIP3      1582            0.0000000000
     27066      1774  TIP3      H2            -33.5417196688       17.5592011345       26.3201162215  TIP3      1582            0.0000000000
     27067      1775  TIP3      OH2           -23.3482390218       18.1998621176       21.5647734141  TIP3      1583            0.0000000000
     27068      1775  TIP3      H1            -23.2017730014       17.2442465514       21.5689915762  TIP3      1583            0.0000000000
     27069      1775  TIP3      H2            -23.5716654918       18.4050872639       22.4874934650  TIP3      1583            0.0000000000
     27070      1776  TIP3      OH2           -23.8777253765       18.4433504908       24.6268401763  TIP3      1584            0.0000000000
     27071      1776  TIP3      H1            -24.7666499926       18.5913167527       25.0080843651  TIP3      1584            0.0000000000
     27072      1776  TIP3      H2            -23.7004799903       17.5441119899       24.9311995838  TIP3      1584            0.0000000000
     27073      1777  TIP3      OH2           -21.2797924500        7.4414008534       36.6839348591  TIP3      1585            0.0000000000
     27074      1777  TIP3      H1            -21.6999790520        7.7692145359       35.8628053893  TIP3      1585            0.0000000000
     27075      1777  TIP3      H2            -21.1698819787        6.4908440339       36.4890702733  TIP3      1585            0.0000000000
     27076      1778  TIP3      OH2           -33.3450933950       14.4486503432       34.5904126678  TIP3      1586            0.0000000000
     27077      1778  TIP3      H1            -33.2619883801       14.1111380897       35.5157997533  TIP3      1586            0.0000000000
     27078      1778  TIP3      H2            -34.1330370022       13.9223391266       34.3185076990  TIP3      1586            0.0000000000
     27079      1779  TIP3      OH2           -31.1184980226        2.5190621882       30.4027339077  TIP3      1587            0.0000000000
     27080      1779  TIP3      H1            -31.9187396973        2.4016693518       29.8535600184  TIP3      1587            0.0000000000
     27081      1779  TIP3      H2            -31.4632973047        3.2560750989       30.9393347991  TIP3      1587            0.0000000000
     27082      1780  TIP3      OH2           -26.1883075615        2.1264894460       33.8012510982  TIP3      1588            0.0000000000
     27083      1780  TIP3      H1            -25.8262878498        1.6159065380       34.5525985781  TIP3      1588            0.0000000000
     27084      1780  TIP3      H2            -27.1433175616        2.1008792076       34.0255477080  TIP3      1588            0.0000000000
     27085      1781  TIP3      OH2           -23.3998217582        5.9198499771       34.7221495855  TIP3      1589            0.0000000000
     27086      1781  TIP3      H1            -23.9654754835        5.5618449328       35.4480546741  TIP3      1589            0.0000000000
     27087      1781  TIP3      H2            -23.2294069421        6.8224223912       35.0322106149  TIP3      1589            0.0000000000
     27088      1782  TIP3      OH2           -31.2501336582        7.4238089595       31.7541772385  TIP3      1590            0.0000000000
     27089      1782  TIP3      H1            -31.6102622421        7.9734303204       32.4682110502  TIP3      1590            0.0000000000
     27090      1782  TIP3      H2            -30.9592827588        8.1624524188       31.1729360762  TIP3      1590            0.0000000000
     27091      1783  TIP3      OH2           -31.0129512135        7.2015912254       26.8760969701  TIP3      1591            0.0000000000
     27092      1783  TIP3      H1            -31.9684428909        7.2293987858       26.6353344161  TIP3      1591            0.0000000000
     27093      1783  TIP3      H2            -30.6221856917        6.8307079770       26.0512862455  TIP3      1591            0.0000000000
     27094      1784  TIP3      OH2           -25.6709670531        8.3067845227       25.6986302417  TIP3      1592            0.0000000000
     27095      1784  TIP3      H1            -26.0533503393        9.0646595397       25.2043714468  TIP3      1592            0.0000000000
     27096      1784  TIP3      H2            -25.1226145730        7.9053196334       25.0012247497  TIP3      1592            0.0000000000
     27097      1785  TIP3      OH2           -26.6300653767        8.3836539890       37.1289393678  TIP3      1593            0.0000000000
     27098      1785  TIP3      H1            -27.0351475174        7.5281634292       37.4041365084  TIP3      1593            0.0000000000
     27099      1785  TIP3      H2            -25.7358655946        8.2717835337       37.4925367032  TIP3      1593            0.0000000000
     27100      1786  TIP3      OH2           -24.6142142809        7.7364063108       28.4821120624  TIP3      1594            0.0000000000
     27101      1786  TIP3      H1            -24.7859536038        8.5760784513       28.0134315356  TIP3      1594            0.0000000000
     27102      1786  TIP3      H2            -24.5832352440        7.1068470488       27.7349107233  TIP3      1594            0.0000000000
     27103      1787  TIP3      OH2           -33.8945561011        7.4925630198       33.5484177454  TIP3      1595            0.0000000000
     27104      1787  TIP3      H1            -33.6996720398        8.2661112381       34.1012677158  TIP3      1595            0.0000000000
     27105      1787  TIP3      H2            -34.8341709741        7.3821938641       33.7763922728  TIP3      1595            0.0000000000
     27106      1788  TIP3      OH2           -35.9161443943        5.0722577426       27.2570449995  TIP3      1596            0.0000000000
     27107      1788  TIP3      H1            -35.8261544086        4.6300628189       28.1137169209  TIP3      1596            0.0000000000
     27108      1788  TIP3      H2            -36.0337073068        4.3294165157       26.6454225612  TIP3      1596            0.0000000000
     27109      1789  TIP3      OH2           -35.7334965312        5.8048125326       22.4168804322  TIP3      1597            0.0000000000
     27110      1789  TIP3      H1            -34.7663442802        5.7226209556       22.5276099753  TIP3      1597            0.0000000000
     27111      1789  TIP3      H2            -35.7878596629        5.4095793100       21.5242171723  TIP3      1597            0.0000000000
     27112      1790  TIP3      OH2           -25.5331972562        9.0525929955       32.7046043285  TIP3      1598            0.0000000000
     27113      1790  TIP3      H1            -24.8600760898        8.4765295462       32.2707598273  TIP3      1598            0.0000000000
     27114      1790  TIP3      H2            -25.9942772623        8.4168783983       33.2968929736  TIP3      1598            0.0000000000
     27115      1791  TIP3      OH2           -28.1726050889        4.9064388023       27.9286498843  TIP3      1599            0.0000000000
     27116      1791  TIP3      H1            -29.0774059308        4.8651754104       28.2741715178  TIP3      1599            0.0000000000
     27117      1791  TIP3      H2            -27.6881870545        4.2878987867       28.5084707934  TIP3      1599            0.0000000000
     27118      1792  TIP3      OH2           -33.6011544173        6.6860609948       26.4811627772  TIP3      1600            0.0000000000
     27119      1792  TIP3      H1            -34.5385238566        6.5428209767       26.2900580198  TIP3      1600            0.0000000000
     27120      1792  TIP3      H2            -33.2619683344        5.7740806483       26.3096250841  TIP3      1600            0.0000000000
     27121      1793  TIP3      OH2           -30.2738537552        6.3588727679       24.3685616361  TIP3      1601            0.0000000000
     27122      1793  TIP3      H1            -29.3024841867        6.3129576335       24.5516112563  TIP3      1601            0.0000000000
     27123      1793  TIP3      H2            -30.3509763159        7.1126102378       23.7666992790  TIP3      1601            0.0000000000
     27124      1794  TIP3      OH2           -24.0104819369        4.2692761015       30.5452970824  TIP3      1602            0.0000000000
     27125      1794  TIP3      H1            -24.7277878977        4.1032707503       31.1756843453  TIP3      1602            0.0000000000
     27126      1794  TIP3      H2            -24.1912840386        3.5780739443       29.8690130286  TIP3      1602            0.0000000000
     27127      1795  TIP3      OH2           -31.4662386184        8.3990563155       22.2049348350  TIP3      1603            0.0000000000
     27128      1795  TIP3      H1            -32.1723492217        8.4797542131       21.5294075718  TIP3      1603            0.0000000000
     27129      1795  TIP3      H2            -30.6977488196        8.4455796209       21.6086693993  TIP3      1603            0.0000000000
     27130      1796  TIP3      OH2           -20.8969472304       20.1192464772       37.5626797086  TIP3      1604            0.0000000000
     27131      1796  TIP3      H1            -20.7412789306       20.5913799008       36.7246678849  TIP3      1604            0.0000000000
     27132      1796  TIP3      H2            -20.0142640196       20.2511655561       37.9882864286  TIP3      1604            0.0000000000
     27133      1797  TIP3      OH2           -33.1753931796       12.6406658053       36.5699693546  TIP3      1605            0.0000000000
     27134      1797  TIP3      H1            -32.6855067780       12.7207026124       37.4074644764  TIP3      1605            0.0000000000
     27135      1797  TIP3      H2            -34.0827827012       12.5770735448       36.9292712079  TIP3      1605            0.0000000000
     27136      1798  TIP3      OH2           -27.3799612059        7.6623624431       29.4469078179  TIP3      1606            0.0000000000
     27137      1798  TIP3      H1            -26.6117164087        7.4321389662       28.9006409437  TIP3      1606            0.0000000000
     27138      1798  TIP3      H2            -27.6299664453        6.7921372257       29.7921561586  TIP3      1606            0.0000000000
     27139      1799  TIP3      OH2           -32.7968469648        4.1462282494       26.3312945774  TIP3      1607            0.0000000000
     27140      1799  TIP3      H1            -33.3350614557        3.3820142848       26.6571414112  TIP3      1607            0.0000000000
     27141      1799  TIP3      H2            -32.1905163063        3.7173301058       25.7090254195  TIP3      1607            0.0000000000
     27142      1800  TIP3      OH2           -28.8706267420        6.2172505291       32.3953230862  TIP3      1608            0.0000000000
     27143      1800  TIP3      H1            -29.4688881941        6.9469966177       32.1412395619  TIP3      1608            0.0000000000
     27144      1800  TIP3      H2            -28.0772279770        6.7048239117       32.6687197144  TIP3      1608            0.0000000000
     27145      1801  TIP3      OH2           -28.3236861210       12.1797322586       24.0014664669  TIP3      1609            0.0000000000
     27146      1801  TIP3      H1            -29.1372915106       11.8174870537       23.5841972975  TIP3      1609            0.0000000000
     27147      1801  TIP3      H2            -28.7030035360       12.5379670432       24.8389596594  TIP3      1609            0.0000000000
     27148      1802  TIP3      OH2           -20.5847254842       11.9512783327       32.5856897744  TIP3      1610            0.0000000000
     27149      1802  TIP3      H1            -20.1591188210       12.5580386685       31.9258540639  TIP3      1610            0.0000000000
     27150      1802  TIP3      H2            -21.4263311226       11.7702038074       32.1366913829  TIP3      1610            0.0000000000
     27151      1803  TIP3      OH2           -27.0143375150       12.6434965688       34.9272909477  TIP3      1611            0.0000000000
     27152      1803  TIP3      H1            -27.5256955193       12.3946101279       35.7204214326  TIP3      1611            0.0000000000
     27153      1803  TIP3      H2            -26.9826564757       13.6097160498       35.0586834691  TIP3      1611            0.0000000000
     27154      1804  TIP3      OH2           -24.1473026038        7.0655915790       23.5483073171  TIP3      1612            0.0000000000
     27155      1804  TIP3      H1            -23.3112476010        6.8261043594       23.9757142539  TIP3      1612            0.0000000000
     27156      1804  TIP3      H2            -23.8890185168        7.9163957725       23.1466613223  TIP3      1612            0.0000000000
     27157      1805  TIP3      OH2           -32.9880373772       11.7496363395       29.4042336082  TIP3      1613            0.0000000000
     27158      1805  TIP3      H1            -32.3972953839       11.6449614174       28.6289519205  TIP3      1613            0.0000000000
     27159      1805  TIP3      H2            -32.8044283742       10.9441968414       29.9185710126  TIP3      1613            0.0000000000
     27160      1806  TIP3      OH2           -26.3875814534       13.9006336406       23.3796147349  TIP3      1614            0.0000000000
     27161      1806  TIP3      H1            -26.6337959644       14.8402874560       23.4133470329  TIP3      1614            0.0000000000
     27162      1806  TIP3      H2            -27.2497986532       13.4221569345       23.4553105898  TIP3      1614            0.0000000000
     27163      1807  TIP3      OH2           -35.4997728580        9.6745778495       34.2935442629  TIP3      1615            0.0000000000
     27164      1807  TIP3      H1            -36.2258000250        9.6612791928       34.9529976720  TIP3      1615            0.0000000000
     27165      1807  TIP3      H2            -35.9743516839        9.6916467312       33.4477048617  TIP3      1615            0.0000000000
     27166      1808  TIP3      OH2           -29.3055482666        9.6722922151       36.5164674695  TIP3      1616            0.0000000000
     27167      1808  TIP3      H1            -29.5768969103        9.2782666127       35.6811746594  TIP3      1616            0.0000000000
     27168      1808  TIP3      H2            -28.3885767820        9.3397735265       36.5981535903  TIP3      1616            0.0000000000
     27169      1809  TIP3      OH2           -23.9912447595       14.8815201105       34.7271696309  TIP3      1617            0.0000000000
     27170      1809  TIP3      H1            -24.7880433252       15.0001723977       34.2132929218  TIP3      1617            0.0000000000
     27171      1809  TIP3      H2            -24.3141511196       15.1117594551       35.6193135280  TIP3      1617            0.0000000000
     27172      1810  TIP3      OH2           -18.5023128535       13.3368871064       35.8771235461  TIP3      1618            0.0000000000
     27173      1810  TIP3      H1            -19.3991394539       13.4591019824       35.4857151535  TIP3      1618            0.0000000000
     27174      1810  TIP3      H2            -17.9550953686       13.1376394146       35.0842360893  TIP3      1618            0.0000000000
     27175      1811  TIP3      OH2           -19.9610530090       15.5633128495       23.4711402602  TIP3      1619            0.0000000000
     27176      1811  TIP3      H1            -20.9243280611       15.5774778696       23.4954018536  TIP3      1619            0.0000000000
     27177      1811  TIP3      H2            -19.7434690786       15.7113571459       22.5236146401  TIP3      1619            0.0000000000
     27178      1812  TIP3      OH2           -23.1270473609       10.6303936055       30.5934077680  TIP3      1620            0.0000000000
     27179      1812  TIP3      H1            -24.0652006377       10.4167033692       30.4563837091  TIP3      1620            0.0000000000
     27180      1812  TIP3      H2            -22.7066527712        9.9104707866       30.0782984427  TIP3      1620            0.0000000000
     27181      1813  TIP3      OH2           -30.5628053839       15.2509427038       27.0758632974  TIP3      1621            0.0000000000
     27182      1813  TIP3      H1            -30.1751247332       16.0084968458       26.5694565169  TIP3      1621            0.0000000000
     27183      1813  TIP3      H2            -31.5047173943       15.4311175233       26.9652161677  TIP3      1621            0.0000000000
     27184      1814  TIP3      OH2           -29.3450344586       13.0184705135       26.2771224027  TIP3      1622            0.0000000000
     27185      1814  TIP3      H1            -29.7357103029       13.9172100909       26.3823249561  TIP3      1622            0.0000000000
     27186      1814  TIP3      H2            -29.9296025662       12.5150785232       26.8694243589  TIP3      1622            0.0000000000
     27187      1815  TIP3      OH2           -28.4192675535       17.0792617826       33.1551502640  TIP3      1623            0.0000000000
     27188      1815  TIP3      H1            -27.8473386415       17.7689574784       32.7596978690  TIP3      1623            0.0000000000
     27189      1815  TIP3      H2            -27.8665278468       16.7179204934       33.8606126198  TIP3      1623            0.0000000000
     27190      1816  TIP3      OH2           -30.2951813357       17.5958049704       25.8896695013  TIP3      1624            0.0000000000
     27191      1816  TIP3      H1            -31.2131072263       17.7424292536       26.1809623925  TIP3      1624            0.0000000000
     27192      1816  TIP3      H2            -30.0198616237       18.5124025187       25.7899211829  TIP3      1624            0.0000000000
     27193      1817  TIP3      OH2           -25.4695840419       12.9771048409       32.3721902783  TIP3      1625            0.0000000000
     27194      1817  TIP3      H1            -25.8831557351       12.5670965052       33.1645105431  TIP3      1625            0.0000000000
     27195      1817  TIP3      H2            -25.0001076802       12.2193623578       31.9914349839  TIP3      1625            0.0000000000
     27196      1818  TIP3      OH2           -22.5420883060       17.7238661461       35.2399242334  TIP3      1626            0.0000000000
     27197      1818  TIP3      H1            -23.2396918675       17.1398371463       34.8877576641  TIP3      1626            0.0000000000
     27198      1818  TIP3      H2            -22.3355593854       18.2782868977       34.4412665094  TIP3      1626            0.0000000000
     27199      1819  TIP3      OH2           -34.2558678365        4.5215772989       34.3016905249  TIP3      1627            0.0000000000
     27200      1819  TIP3      H1            -34.6285202712        5.3922551275       34.4906144367  TIP3      1627            0.0000000000
     27201      1819  TIP3      H2            -34.8834783776        3.9426952253       34.7614747701  TIP3      1627            0.0000000000
     27202      1820  TIP3      OH2           -22.3323787247       12.3178705543       23.6942238930  TIP3      1628            0.0000000000
     27203      1820  TIP3      H1            -22.1138065981       11.6088371678       24.3358911738  TIP3      1628            0.0000000000
     27204      1820  TIP3      H2            -21.4997033693       12.7917626027       23.5632027775  TIP3      1628            0.0000000000
     27205      1821  TIP3      OH2           -34.4404476928       16.7805456355       32.4381522260  TIP3      1629            0.0000000000
     27206      1821  TIP3      H1            -33.8570402439       16.0478708085       32.6962465798  TIP3      1629            0.0000000000
     27207      1821  TIP3      H2            -35.1112755565       16.7721590221       33.1355600283  TIP3      1629            0.0000000000
     27208      1822  TIP3      OH2           -29.9614971888       14.8814846703       22.5574504841  TIP3      1630            0.0000000000
     27209      1822  TIP3      H1            -29.2031492340       15.3838004454       22.8782745823  TIP3      1630            0.0000000000
     27210      1822  TIP3      H2            -30.2697478105       15.4403486980       21.8224809699  TIP3      1630            0.0000000000
     27211      1823  TIP3      OH2           -25.6895624499        4.8737040093       33.5333320222  TIP3      1631            0.0000000000
     27212      1823  TIP3      H1            -24.8015464813        5.0153302793       33.8818012018  TIP3      1631            0.0000000000
     27213      1823  TIP3      H2            -25.8266306312        3.9137394073       33.6718976205  TIP3      1631            0.0000000000
     27214      1824  TIP3      OH2           -26.9570202366       16.7142497146       22.6510842364  TIP3      1632            0.0000000000
     27215      1824  TIP3      H1            -27.7946485183       17.2027981181       22.6961154708  TIP3      1632            0.0000000000
     27216      1824  TIP3      H2            -26.8518053716       16.6088579123       21.6963470197  TIP3      1632            0.0000000000
     27217      1825  TIP3      OH2           -27.6724058783        6.2773323868       25.5824222770  TIP3      1633            0.0000000000
     27218      1825  TIP3      H1            -26.9659076888        6.9334893939       25.7166144296  TIP3      1633            0.0000000000
     27219      1825  TIP3      H2            -27.6105760181        5.7001284440       26.3638547646  TIP3      1633            0.0000000000
     27220      1826  TIP3      OH2           -26.8136609207        7.2882475002       34.4013596830  TIP3      1634            0.0000000000
     27221      1826  TIP3      H1            -26.5986029411        7.5357766671       35.3191143983  TIP3      1634            0.0000000000
     27222      1826  TIP3      H2            -26.3566978672        6.4168568023       34.2708722077  TIP3      1634            0.0000000000
     27223      1827  TIP3      OH2           -27.0629925872        2.6980110495       26.2625696644  TIP3      1635            0.0000000000
     27224      1827  TIP3      H1            -27.6342992978        3.4818399724       26.1416645067  TIP3      1635            0.0000000000
     27225      1827  TIP3      H2            -26.2713960670        3.0799311234       25.8566481613  TIP3      1635            0.0000000000
     27226      1828  TIP3      OH2           -30.9186940041        3.9025295208       23.0480376040  TIP3      1636            0.0000000000
     27227      1828  TIP3      H1            -31.0132471106        4.8001511675       23.4035023346  TIP3      1636            0.0000000000
     27228      1828  TIP3      H2            -29.9457828505        3.8059836842       23.1385381637  TIP3      1636            0.0000000000
     27229      1829  TIP3      OH2           -20.8846145734        5.0076819241       35.3741878587  TIP3      1637            0.0000000000
     27230      1829  TIP3      H1            -21.8277543210        4.8497329165       35.1813909823  TIP3      1637            0.0000000000
     27231      1829  TIP3      H2            -20.5161387425        5.1236023804       34.4770757895  TIP3      1637            0.0000000000
     27232      1830  TIP3      OH2           -22.0068010545        8.5470345554       28.9493262269  TIP3      1638            0.0000000000
     27233      1830  TIP3      H1            -22.7567228633        7.9348601796       29.0523695697  TIP3      1638            0.0000000000
     27234      1830  TIP3      H2            -21.2960448104        8.0996645040       29.4714684637  TIP3      1638            0.0000000000
     27235      1831  TIP3      OH2           -21.4076951437       18.0413618057       30.8468679105  TIP3      1639            0.0000000000
     27236      1831  TIP3      H1            -21.2779958549       18.8363198134       30.2771888068  TIP3      1639            0.0000000000
     27237      1831  TIP3      H2            -20.4850191332       17.7881860550       31.0155835540  TIP3      1639            0.0000000000
     27238      1832  TIP3      OH2           -33.5386410573        2.1281066452       29.5161161860  TIP3      1640            0.0000000000
     27239      1832  TIP3      H1            -33.9282658478        1.8107702055       28.6724105393  TIP3      1640            0.0000000000
     27240      1832  TIP3      H2            -33.6817054406        1.3212849742       30.0733908265  TIP3      1640            0.0000000000
     27241      1833  TIP3      OH2           -34.7442119020       16.1788892945       25.9869247912  TIP3      1641            0.0000000000
     27242      1833  TIP3      H1            -35.6942997152       16.3154681863       26.1124433755  TIP3      1641            0.0000000000
     27243      1833  TIP3      H2            -34.6380744875       16.5936783710       25.1072818424  TIP3      1641            0.0000000000
     27244      1834  TIP3      OH2           -34.8255878938       18.2116247838       36.8615002638  TIP3      1642            0.0000000000
     27245      1834  TIP3      H1            -34.5331270219       18.5094789512       37.7538850809  TIP3      1642            0.0000000000
     27246      1834  TIP3      H2            -35.5916072985       17.6506209161       37.0877321073  TIP3      1642            0.0000000000
     27247      1835  TIP3      OH2           -30.3791361669       17.5173627012       38.8106230265  TIP3      1643            0.0000000000
     27248      1835  TIP3      H1            -30.0085955488       16.7562096047       39.2726385961  TIP3      1643            0.0000000000
     27249      1835  TIP3      H2            -30.5738039969       17.1415881927       37.9314031794  TIP3      1643            0.0000000000
     27250      1836  TIP3      OH2           -24.2831727300       15.4179171277       37.3299200549  TIP3      1644            0.0000000000
     27251      1836  TIP3      H1            -24.7716623894       14.6903767250       37.7798762169  TIP3      1644            0.0000000000
     27252      1836  TIP3      H2            -23.3659221457       15.1572924931       37.5332837393  TIP3      1644            0.0000000000
     27253      1837  TIP3      OH2           -35.2681845274       12.4620080779       38.1980068795  TIP3      1645            0.0000000000
     27254      1837  TIP3      H1            -35.1053221634       11.6802631067       38.7541751897  TIP3      1645            0.0000000000
     27255      1837  TIP3      H2            -36.1761555188       12.3359620524       37.8826796668  TIP3      1645            0.0000000000
     27256      1838  TIP3      OH2           -31.1279434776       12.0257423185       20.1890894547  TIP3      1646            0.0000000000
     27257      1838  TIP3      H1            -30.6061764051       12.0784222816       21.0057220220  TIP3      1646            0.0000000000
     27258      1838  TIP3      H2            -30.7785471500       12.7213501987       19.6361358007  TIP3      1646            0.0000000000
     27259      1839  TIP3      OH2           -28.9194877792       12.2528105479       37.0838129390  TIP3      1647            0.0000000000
     27260      1839  TIP3      H1            -29.2631322736       12.9623847620       36.4897474427  TIP3      1647            0.0000000000
     27261      1839  TIP3      H2            -29.2068340310       11.4271663012       36.6320317689  TIP3      1647            0.0000000000
     27262      1840  TIP3      OH2           -23.2933610869       12.1119152249       34.9292170470  TIP3      1648            0.0000000000
     27263      1840  TIP3      H1            -22.4527145199       12.6077474936       35.0538955290  TIP3      1648            0.0000000000
     27264      1840  TIP3      H2            -23.8946284715       12.8728422458       34.8590755865  TIP3      1648            0.0000000000
     27265      1841  TIP3      OH2           -34.6723811053        9.4177178456       37.5056325958  TIP3      1649            0.0000000000
     27266      1841  TIP3      H1            -34.3501227036        8.5003960927       37.4764154358  TIP3      1649            0.0000000000
     27267      1841  TIP3      H2            -34.7437867135        9.4774845565       38.4738529535  TIP3      1649            0.0000000000
     27268      1842  TIP3      OH2           -30.1011198218       10.8237529776       22.6816178340  TIP3      1650            0.0000000000
     27269      1842  TIP3      H1            -30.3153092337       10.0236685715       23.1795903897  TIP3      1650            0.0000000000
     27270      1842  TIP3      H2            -29.6036327289       10.4133981664       21.9444343689  TIP3      1650            0.0000000000
     27271      1843  TIP3      OH2           -30.9508093042        8.3523479520       34.2416253644  TIP3      1651            0.0000000000
     27272      1843  TIP3      H1            -31.5910186689        9.0190167233       34.6039783144  TIP3      1651            0.0000000000
     27273      1843  TIP3      H2            -30.3018513866        8.9630945196       33.8113373747  TIP3      1651            0.0000000000
     27274      1844  TIP3      OH2           -29.0388760567        9.1690602371       20.8080556183  TIP3      1652            0.0000000000
     27275      1844  TIP3      H1            -28.7876119790        9.7735170619       20.0816247777  TIP3      1652            0.0000000000
     27276      1844  TIP3      H2            -28.1367152843        8.9198135503       21.1184645085  TIP3      1652            0.0000000000
     27277      1845  TIP3      OH2           -25.5327580228       11.2092292728       38.3006165248  TIP3      1653            0.0000000000
     27278      1845  TIP3      H1            -25.1504341658       10.9213436325       37.4557195045  TIP3      1653            0.0000000000
     27279      1845  TIP3      H2            -25.5348703833       10.3812930132       38.8160725514  TIP3      1653            0.0000000000
     27280      1846  TIP3      OH2           -30.0006418748        6.3485075295       35.6335825626  TIP3      1654            0.0000000000
     27281      1846  TIP3      H1            -29.2150682035        6.0872460680       35.1209481190  TIP3      1654            0.0000000000
     27282      1846  TIP3      H2            -30.1681068714        7.2280373386       35.2244595690  TIP3      1654            0.0000000000
     27283      1847  TIP3      OH2           -30.0052012082        4.0672888788       33.4113986920  TIP3      1655            0.0000000000
     27284      1847  TIP3      H1            -29.4723623709        4.6883483874       32.8597241637  TIP3      1655            0.0000000000
     27285      1847  TIP3      H2            -30.6583088971        3.6960991425       32.7820046811  TIP3      1655            0.0000000000
     27286      1848  TIP3      OH2           -28.8532821254        9.9567764060       33.4477640406  TIP3      1656            0.0000000000
     27287      1848  TIP3      H1            -27.9147212894       10.1053105268       33.2478924356  TIP3      1656            0.0000000000
     27288      1848  TIP3      H2            -29.2376780827       10.7994454189       33.1095001575  TIP3      1656            0.0000000000
     27289      1849  TIP3      OH2           -24.3888234987        7.6369930519       38.7862574923  TIP3      1657            0.0000000000
     27290      1849  TIP3      H1            -24.3135794202        6.7339350282       39.1625448013  TIP3      1657            0.0000000000
     27291      1849  TIP3      H2            -23.5159010669        7.7579567464       38.3804559732  TIP3      1657            0.0000000000
     27292      1850  TIP3      OH2           -22.6968865689       10.7362244814       37.1967245302  TIP3      1658            0.0000000000
     27293      1850  TIP3      H1            -23.1415005630       11.1021195604       36.4083814703  TIP3      1658            0.0000000000
     27294      1850  TIP3      H2            -21.7797738995       10.6733344152       36.8640735951  TIP3      1658            0.0000000000
     27295      1851  TIP3      OH2           -32.2763695997        7.3058630519       37.6459074477  TIP3      1659            0.0000000000
     27296      1851  TIP3      H1            -32.9542719692        6.5927833057       37.6705304755  TIP3      1659            0.0000000000
     27297      1851  TIP3      H2            -31.6389826767        7.0259999177       36.9813569490  TIP3      1659            0.0000000000
     27298      1852  TIP3      OH2           -28.9469520624        1.7054485539       33.8485161722  TIP3      1660            0.0000000000
     27299      1852  TIP3      H1            -29.2169302142        2.6531286950       33.8817619083  TIP3      1660            0.0000000000
     27300      1852  TIP3      H2            -29.7044453743        1.3059653674       33.3774945995  TIP3      1660            0.0000000000
     27301      1853  TIP3      OH2           -27.9598858976        6.1525397378       37.7423486643  TIP3      1661            0.0000000000
     27302      1853  TIP3      H1            -28.3200370826        5.9895845964       38.6280055931  TIP3      1661            0.0000000000
     27303      1853  TIP3      H2            -28.7236843973        5.8409915028       37.2318407559  TIP3      1661            0.0000000000
     27304      1854  TIP3      OH2           -25.1528958108        5.3851047164       36.6901976226  TIP3      1662            0.0000000000
     27305      1854  TIP3      H1            -26.1122262312        5.3260950963       36.8229199008  TIP3      1662            0.0000000000
     27306      1854  TIP3      H2            -24.8720745233        4.7977392993       37.4282013385  TIP3      1662            0.0000000000
     27307      1855  TIP3      OH2           -24.2878776084        3.6806684189       38.4846605344  TIP3      1663            0.0000000000
     27308      1855  TIP3      H1            -23.8347637613        2.8185850504       38.6115843462  TIP3      1663            0.0000000000
     27309      1855  TIP3      H2            -24.0244476724        4.1747682699       39.2947930835  TIP3      1663            0.0000000000
     27310      1856  TIP3      OH2           -33.7755007040        4.9546822519       37.5189963955  TIP3      1664            0.0000000000
     27311      1856  TIP3      H1            -34.0209365881        4.1158502068       37.0923407089  TIP3      1664            0.0000000000
     27312      1856  TIP3      H2            -34.0098922618        4.7830930579       38.4711338183  TIP3      1664            0.0000000000
     27313      1857  TIP3      OH2           -29.3049382242        1.0933893015       36.4782818279  TIP3      1665            0.0000000000
     27314      1857  TIP3      H1            -28.5548174906        0.4689405850       36.5256027804  TIP3      1665            0.0000000000
     27315      1857  TIP3      H2            -29.2534487256        1.3113021808       35.5226977322  TIP3      1665            0.0000000000
     27316      1858  TIP3      OH2           -29.1956886881        2.3714171831       39.1042437188  TIP3      1666            0.0000000000
     27317      1858  TIP3      H1            -29.2195592022        1.8584960620       38.2728585580  TIP3      1666            0.0000000000
     27318      1858  TIP3      H2            -29.2094807952        3.2728576293       38.7357963221  TIP3      1666            0.0000000000
     27319      1859  TIP3      OH2           -36.5281070789       19.9812343532       26.0019965843  TIP3      1667            0.0000000000
     27320      1859  TIP3      H1            -37.3764578990       19.4970263347       25.9680886077  TIP3      1667            0.0000000000
     27321      1859  TIP3      H2            -36.0907209104       19.3746641274       26.6309338481  TIP3      1667            0.0000000000
     27322      1860  TIP3      OH2           -35.8575953150       17.9181599897       27.9855939735  TIP3      1668            0.0000000000
     27323      1860  TIP3      H1            -35.6281401612       16.9667379241       28.0812965143  TIP3      1668            0.0000000000
     27324      1860  TIP3      H2            -35.3631866990       18.2507595317       28.7766713373  TIP3      1668            0.0000000000
     27325      1861  TIP3      OH2           -18.5465765615       18.5077556784       30.8783259290  TIP3      1669            0.0000000000
     27326      1861  TIP3      H1            -18.0863936166       18.4396761056       31.7291754589  TIP3      1669            0.0000000000
     27327      1861  TIP3      H2            -18.3519331769       19.4185854925       30.6167616311  TIP3      1669            0.0000000000
     27328      1862  TIP3      OH2           -18.8406919375       17.8695950866       34.0079619788  TIP3      1670            0.0000000000
     27329      1862  TIP3      H1            -19.1900409892       17.0792201152       33.5345767005  TIP3      1670            0.0000000000
     27330      1862  TIP3      H2            -18.5085452749       17.4549938145       34.8342189825  TIP3      1670            0.0000000000
     27331      1863  TIP3      OH2           -20.2392076867       13.9679269631       38.9206831457  TIP3      1671            0.0000000000
     27332      1863  TIP3      H1            -21.0918808941       14.0512989317       39.4002143868  TIP3      1671            0.0000000000
     27333      1863  TIP3      H2            -19.7223065040       14.7272825824       39.2928924908  TIP3      1671            0.0000000000
     27334      1864  TIP3      OH2           -18.3291607473       10.2632236702       25.9594246927  TIP3      1672            0.0000000000
     27335      1864  TIP3      H1            -19.2006643807        9.9981876671       26.3244223528  TIP3      1672            0.0000000000
     27336      1864  TIP3      H2            -17.8247936485       10.4254909904       26.7902818849  TIP3      1672            0.0000000000
     27337      1865  TIP3      OH2           -19.0959281757       13.0243034541       30.6979728957  TIP3      1673            0.0000000000
     27338      1865  TIP3      H1            -18.4370613697       12.3000034014       30.6015134239  TIP3      1673            0.0000000000
     27339      1865  TIP3      H2            -18.6467982195       13.7665990920       30.2367142032  TIP3      1673            0.0000000000
     27340      1866  TIP3      OH2           -20.3283661653       15.7575875605       33.0881069140  TIP3      1674            0.0000000000
     27341      1866  TIP3      H1            -21.0989490148       16.1110095246       33.5638944465  TIP3      1674            0.0000000000
     27342      1866  TIP3      H2            -20.7235512656       15.3880048818       32.2670292569  TIP3      1674            0.0000000000
     27343      1867  TIP3      OH2           -20.4011934639        6.9148017405       20.6539891208  TIP3      1675            0.0000000000
     27344      1867  TIP3      H1            -20.1600386850        7.5341920541       19.9608680139  TIP3      1675            0.0000000000
     27345      1867  TIP3      H2            -20.7110789225        6.1899834649       20.0780806740  TIP3      1675            0.0000000000
     27346      1868  TIP3      OH2           -20.4914463155        8.7322433886       26.8392269877  TIP3      1676            0.0000000000
     27347      1868  TIP3      H1            -21.0858738644        7.9793162427       26.7618672797  TIP3      1676            0.0000000000
     27348      1868  TIP3      H2            -20.7395446544        8.9334567551       27.7706634214  TIP3      1676            0.0000000000
     27349      1869  TIP3      OH2           -36.2069796837       11.2090515568       30.6247052843  TIP3      1677            0.0000000000
     27350      1869  TIP3      H1            -36.2233690506       10.9496149094       29.6805663713  TIP3      1677            0.0000000000
     27351      1869  TIP3      H2            -35.2607757347       11.3677907038       30.7821590752  TIP3      1677            0.0000000000
     27352      1870  TIP3      OH2           -19.9263737339       10.7410389883       36.2473341450  TIP3      1678            0.0000000000
     27353      1870  TIP3      H1            -19.3142976866        9.9747909931       36.3117768441  TIP3      1678            0.0000000000
     27354      1870  TIP3      H2            -19.3572431275       11.4650300747       35.9346837321  TIP3      1678            0.0000000000
     27355      1871  TIP3      OH2           -18.7076319000        8.4619182033       37.0889158892  TIP3      1679            0.0000000000
     27356      1871  TIP3      H1            -19.5703090183        8.1561132527       36.7402870815  TIP3      1679            0.0000000000
     27357      1871  TIP3      H2            -18.1122091244        7.6898350078       36.9697215691  TIP3      1679            0.0000000000
     27358      1872  TIP3      OH2           -21.7737800681        6.0215858525       24.6166902439  TIP3      1680            0.0000000000
     27359      1872  TIP3      H1            -21.4729406856        5.3688304272       25.2849542445  TIP3      1680            0.0000000000
     27360      1872  TIP3      H2            -21.3373448348        6.8328934073       24.9160468396  TIP3      1680            0.0000000000
     27361      1873  TIP3      OH2           -20.3028683900        7.1605087112       30.3264834801  TIP3      1681            0.0000000000
     27362      1873  TIP3      H1            -19.3341828858        7.2343047679       30.5086837256  TIP3      1681            0.0000000000
     27363      1873  TIP3      H2            -20.6264762845        7.0617764376       31.2334084712  TIP3      1681            0.0000000000
     27364      1874  TIP3      OH2           -20.4004633900        7.6720674106       33.0932524259  TIP3      1682            0.0000000000
     27365      1874  TIP3      H1            -21.2216355960        7.8740223083       33.5811026189  TIP3      1682            0.0000000000
     27366      1874  TIP3      H2            -19.9992294324        8.5630978733       33.0341059707  TIP3      1682            0.0000000000
     27367      1875  TIP3      OH2           -36.0022848317        6.2707193854       36.9570482579  TIP3      1683            0.0000000000
     27368      1875  TIP3      H1            -35.1621490701        5.8621667382       37.2432442648  TIP3      1683            0.0000000000
     27369      1875  TIP3      H2            -36.6365938565        5.5217377669       37.0206840136  TIP3      1683            0.0000000000
     27370      1876  TIP3      OH2           -18.4524399023        2.1057206616       38.3131931389  TIP3      1684            0.0000000000
     27371      1876  TIP3      H1            -17.9852313495        1.3781155814       37.8529244069  TIP3      1684            0.0000000000
     27372      1876  TIP3      H2            -18.4413863589        2.7907980165       37.6046177140  TIP3      1684            0.0000000000
     27373      1877  TIP3      OH2           -21.0914575383        3.3129971437       25.3966862605  TIP3      1685            0.0000000000
     27374      1877  TIP3      H1            -20.5058378419        3.1529839306       26.1708632599  TIP3      1685            0.0000000000
     27375      1877  TIP3      H2            -21.0806825503        2.4419363041       24.9611414038  TIP3      1685            0.0000000000
     27376      1878  TIP3      OH2           -35.1349320304        4.2367461702       30.1357492789  TIP3      1686            0.0000000000
     27377      1878  TIP3      H1            -34.5335006850        3.4908404696       29.9353605758  TIP3      1686            0.0000000000
     27378      1878  TIP3      H2            -34.5434725681        4.9964255644       30.0813538320  TIP3      1686            0.0000000000
     27379      1879  TIP3      OH2           -36.2318660973        8.6427690567       31.5193195022  TIP3      1687            0.0000000000
     27380      1879  TIP3      H1            -35.4716645312        8.3001657344       31.0222984663  TIP3      1687            0.0000000000
     27381      1879  TIP3      H2            -36.4096700882        9.4443485657       30.9775834588  TIP3      1687            0.0000000000
     27382      1880  TIP3      OH2           -18.8555670870        4.2367508033       36.8865326340  TIP3      1688            0.0000000000
     27383      1880  TIP3      H1            -19.5315403823        4.3201242802       37.5965489801  TIP3      1688            0.0000000000
     27384      1880  TIP3      H2            -19.4351927140        4.0104773403       36.1268606388  TIP3      1688            0.0000000000
     27385      1881  TIP3      OH2           -19.3848464945        3.9160988406       21.7043906611  TIP3      1689            0.0000000000
     27386      1881  TIP3      H1            -18.6340080657        3.4725962109       22.1186866492  TIP3      1689            0.0000000000
     27387      1881  TIP3      H2            -19.2327737514        4.8162002084       22.0310016772  TIP3      1689            0.0000000000
     27388      1882  TIP3      OH2           -36.2385634655        4.0619104397       24.5184865110  TIP3      1690            0.0000000000
     27389      1882  TIP3      H1            -36.4404121977        3.8597202080       23.5826072031  TIP3      1690            0.0000000000
     27390      1882  TIP3      H2            -35.7238114964        4.8800687577       24.3839912150  TIP3      1690            0.0000000000
     27391      1883  TIP3      OH2           -21.7043827773       18.8769001183       26.9087168330  TIP3      1691            0.0000000000
     27392      1883  TIP3      H1            -21.0809511637       18.4750510902       26.2635777289  TIP3      1691            0.0000000000
     27393      1883  TIP3      H2            -21.1027896573       19.2479586112       27.5713961952  TIP3      1691            0.0000000000
     27394      1884  TIP3      OH2           -36.2537895176        1.7552424021       33.0958232448  TIP3      1692            0.0000000000
     27395      1884  TIP3      H1            -36.5693867210        2.0923908715       33.9431202441  TIP3      1692            0.0000000000
     27396      1884  TIP3      H2            -36.6165512478        2.4105763154       32.4645044914  TIP3      1692            0.0000000000
     27397      1885  TIP3      OH2           -33.9900565586       15.4503555627       37.2421649456  TIP3      1693            0.0000000000
     27398      1885  TIP3      H1            -34.3474140913       16.2533828331       36.8145153668  TIP3      1693            0.0000000000
     27399      1885  TIP3      H2            -34.7260793327       15.1666087312       37.8075562284  TIP3      1693            0.0000000000
     27400      1886  TIP3      OH2           -31.2674737420       17.1097906813       33.7105902884  TIP3      1694            0.0000000000
     27401      1886  TIP3      H1            -31.1975546265       18.0104142990       33.3370633121  TIP3      1694            0.0000000000
     27402      1886  TIP3      H2            -30.3492336682       16.8127436518       33.6527283990  TIP3      1694            0.0000000000
     27403      1887  TIP3      OH2           -27.1812155310       17.9528289208       36.4155331036  TIP3      1695            0.0000000000
     27404      1887  TIP3      H1            -27.1950149112       17.8328129057       37.3837517070  TIP3      1695            0.0000000000
     27405      1887  TIP3      H2            -26.2536889978       18.2327593861       36.2702139430  TIP3      1695            0.0000000000
     27406      1888  TIP3      OH2           -24.7487350156       19.2593036034       36.3326479471  TIP3      1696            0.0000000000
     27407      1888  TIP3      H1            -24.1891963930       19.1974596952       35.5316623729  TIP3      1696            0.0000000000
     27408      1888  TIP3      H2            -24.5312824465       20.1483392818       36.6580838959  TIP3      1696            0.0000000000
     27409      1889  TIP3      OH2           -19.8511242127        1.6609333723       35.0127885950  TIP3      1697            0.0000000000
     27410      1889  TIP3      H1            -20.5920774541        2.0029862375       34.5008533380  TIP3      1697            0.0000000000
     27411      1889  TIP3      H2            -19.7513882292        0.7560376740       34.6652069757  TIP3      1697            0.0000000000
     27412      1890  TIP3      OH2           -33.6311887166       20.0348805048       33.3753516280  TIP3      1698            0.0000000000
     27413      1890  TIP3      H1            -34.5271992404       20.1791856640       33.0117819503  TIP3      1698            0.0000000000
     27414      1890  TIP3      H2            -33.8630028348       19.8456403723       34.2899865930  TIP3      1698            0.0000000000
     27415      1891  TIP3      OH2           -31.2119149803       19.5790030372       32.2763444344  TIP3      1699            0.0000000000
     27416      1891  TIP3      H1            -32.1292935141       19.6064877511       32.6361528851  TIP3      1699            0.0000000000
     27417      1891  TIP3      H2            -31.2500967859       20.2349813395       31.5548027428  TIP3      1699            0.0000000000
     27418      1892  TIP3      OH2           -26.9036908907       19.1580911992       31.6823423203  TIP3      1700            0.0000000000
     27419      1892  TIP3      H1            -27.4661103904       19.6049027257       31.0324223014  TIP3      1700            0.0000000000
     27420      1892  TIP3      H2            -26.7241158559       19.8800123419       32.3227559766  TIP3      1700            0.0000000000
     27421      1893  TIP3      OH2           -24.7908304255       17.9392980436       33.3010506186  TIP3      1701            0.0000000000
     27422      1893  TIP3      H1            -25.3302984127       18.3538545564       32.6016433165  TIP3      1701            0.0000000000
     27423      1893  TIP3      H2            -23.9079098436       18.2454374116       33.0196186857  TIP3      1701            0.0000000000
     27424      1894  TIP3      OH2           -22.3100373144       19.2276782845       33.0749366696  TIP3      1702            0.0000000000
     27425      1894  TIP3      H1            -22.1505190074       20.1614977388       32.8753016901  TIP3      1702            0.0000000000
     27426      1894  TIP3      H2            -22.0203115828       18.8071742899       32.2256810840  TIP3      1702            0.0000000000
     27427      1895  TIP3      OH2           -34.5345576271       18.3934442761       30.2381486798  TIP3      1703            0.0000000000
     27428      1895  TIP3      H1            -34.7002503474       17.9826263471       31.1128808810  TIP3      1703            0.0000000000
     27429      1895  TIP3      H2            -33.7252191996       17.8899464462       29.9760996172  TIP3      1703            0.0000000000
     27430      1896  TIP3      OH2           -32.3717630586       17.1318657641       29.2534865505  TIP3      1704            0.0000000000
     27431      1896  TIP3      H1            -32.3876935523       16.1961583321       29.5166891954  TIP3      1704            0.0000000000
     27432      1896  TIP3      H2            -31.4554246510       17.3584382154       29.5548282919  TIP3      1704            0.0000000000
     27433      1897  TIP3      OH2           -29.9941198333       17.2728157254       30.3886470154  TIP3      1705            0.0000000000
     27434      1897  TIP3      H1            -29.8612117854       16.3054148489       30.3134413333  TIP3      1705            0.0000000000
     27435      1897  TIP3      H2            -29.5963280795       17.4367382568       31.2578869575  TIP3      1705            0.0000000000
     27436      1898  TIP3      OH2           -26.9672203780        2.7964532120       29.1825404048  TIP3      1706            0.0000000000
     27437      1898  TIP3      H1            -27.7162874716        2.2007393940       29.4104390750  TIP3      1706            0.0000000000
     27438      1898  TIP3      H2            -26.7219240276        2.5262178884       28.2794444898  TIP3      1706            0.0000000000
     27439      1899  TIP3      OH2           -21.1385737912        1.3771753667       29.1139813908  TIP3      1707            0.0000000000
     27440      1899  TIP3      H1            -20.5863989575        1.9754271135       28.5597145731  TIP3      1707            0.0000000000
     27441      1899  TIP3      H2            -22.0400156036        1.7216567767       28.9583226804  TIP3      1707            0.0000000000
     27442      1900  TIP3      OH2           -19.3006925817        2.5669589637       27.4037021667  TIP3      1708            0.0000000000
     27443      1900  TIP3      H1            -18.7065129757        1.8867049734       27.0185301236  TIP3      1708            0.0000000000
     27444      1900  TIP3      H2            -18.6771157415        3.2343779385       27.7854545813  TIP3      1708            0.0000000000
     27445      1901  TIP3      OH2           -34.1437533500        2.0128417280       26.8117716278  TIP3      1709            0.0000000000
     27446      1901  TIP3      H1            -34.7927457187        1.8226452465       26.1090314070  TIP3      1709            0.0000000000
     27447      1901  TIP3      H2            -33.5820197053        1.2109684458       26.7301289532  TIP3      1709            0.0000000000
     27448      1902  TIP3      OH2           -34.5032010638        2.0580845215       22.4150798276  TIP3      1710            0.0000000000
     27449      1902  TIP3      H1            -35.2012464136        2.2725196414       21.7385966969  TIP3      1710            0.0000000000
     27450      1902  TIP3      H2            -34.2057667440        2.9727271451       22.5906117876  TIP3      1710            0.0000000000
     27451      1903  TIP3      OH2           -29.6381460536        1.3588517259       26.8870987379  TIP3      1711            0.0000000000
     27452      1903  TIP3      H1            -28.8457148972        1.7915011350       26.5364013462  TIP3      1711            0.0000000000
     27453      1903  TIP3      H2            -29.4513936206        1.3796239495       27.8365989999  TIP3      1711            0.0000000000
     27454      1904  TIP3      OH2           -24.2602959627        2.1818031440       28.3324335057  TIP3      1712            0.0000000000
     27455      1904  TIP3      H1            -24.3096512244        2.1671436883       27.3707432753  TIP3      1712            0.0000000000
     27456      1904  TIP3      H2            -24.6222079496        1.2870892490       28.5193920813  TIP3      1712            0.0000000000
     27457      1905  TIP3      OH2           -23.1232599963        1.6618892006       23.4509443688  TIP3      1713            0.0000000000
     27458      1905  TIP3      H1            -23.9621898309        1.5113648319       22.9730562139  TIP3      1713            0.0000000000
     27459      1905  TIP3      H2            -23.3292460527        1.1236774226       24.2511081112  TIP3      1713            0.0000000000
     27460      1906  TIP3      OH2           -34.9986604466       17.9477733350       23.8202190966  TIP3      1714            0.0000000000
     27461      1906  TIP3      H1            -35.8051762226       17.3950961069       23.8890865250  TIP3      1714            0.0000000000
     27462      1906  TIP3      H2            -35.3194227631       18.5812871242       23.1645703973  TIP3      1714            0.0000000000
     27463      1907  TIP3      OH2           -33.4904095281        4.5007733867       21.8882561893  TIP3      1715            0.0000000000
     27464      1907  TIP3      H1            -33.5382515857        4.5269727126       20.9166549049  TIP3      1715            0.0000000000
     27465      1907  TIP3      H2            -32.5360851214        4.3376276171       22.0551843460  TIP3      1715            0.0000000000
     27466      1908  TIP3      OH2           -20.0376723971       17.6434188370       25.2441211738  TIP3      1716            0.0000000000
     27467      1908  TIP3      H1            -19.8292172558       16.8384523320       24.7112149683  TIP3      1716            0.0000000000
     27468      1908  TIP3      H2            -20.1065949563       18.3014475760       24.5103945844  TIP3      1716            0.0000000000
     27469      1909  TIP3      OH2           -34.5855288657        2.3043006434       36.4833491843  TIP3      1717            0.0000000000
     27470      1909  TIP3      H1            -34.7733207913        1.3449442288       36.4624918441  TIP3      1717            0.0000000000
     27471      1909  TIP3      H2            -33.6920722913        2.2729773055       36.8913292487  TIP3      1717            0.0000000000
     27472      1910  TIP3      OH2           -32.3921423779        1.9150964259       38.0868944553  TIP3      1718            0.0000000000
     27473      1910  TIP3      H1            -31.6617489514        1.2776989548       37.9598127647  TIP3      1718            0.0000000000
     27474      1910  TIP3      H2            -33.0170620619        1.3867073265       38.6280418542  TIP3      1718            0.0000000000
     27475      1911  TIP3      OH2           -23.7061534421        1.1105255577       38.7399912075  TIP3      1719            0.0000000000
     27476      1911  TIP3      H1            -23.5179080370        0.6167877831       39.5620776829  TIP3      1719            0.0000000000
     27477      1911  TIP3      H2            -22.8893144993        0.9380605846       38.2207008834  TIP3      1719            0.0000000000
     27478      1912  TIP3      OH2           -20.5276189571       17.2338247382       36.8201120562  TIP3      1720            0.0000000000
     27479      1912  TIP3      H1            -21.3188137846       17.2334229392       36.2237270542  TIP3      1720            0.0000000000
     27480      1912  TIP3      H2            -20.5205379906       18.1677584994       37.1056645227  TIP3      1720            0.0000000000
     27481      1913  TIP3      OH2            -5.8551868639       11.0916055326       26.6847860397  TIP3      1721            0.0000000000
     27482      1913  TIP3      H1             -5.6457457876       11.9339530742       27.1303856687  TIP3      1721            0.0000000000
     27483      1913  TIP3      H2             -6.6665750256       11.3632135656       26.2431487985  TIP3      1721            0.0000000000
     27484      1914  TIP3      OH2            -6.9780521041       10.0206308613       30.2667878289  TIP3      1722            0.0000000000
     27485      1914  TIP3      H1             -6.9754747429        9.5826687733       31.1448565337  TIP3      1722            0.0000000000
     27486      1914  TIP3      H2             -7.6196836030        9.5178279953       29.7335869587  TIP3      1722            0.0000000000
     27487      1915  TIP3      OH2           -15.0417305765        9.9066008363       31.5733859577  TIP3      1723            0.0000000000
     27488      1915  TIP3      H1            -15.1237466822        9.0939276360       32.1006229460  TIP3      1723            0.0000000000
     27489      1915  TIP3      H2            -14.4539408229       10.4294097206       32.1477183835  TIP3      1723            0.0000000000
     27490      1916  TIP3      OH2            -3.6843026532       13.0722735798       28.8938922422  TIP3      1724            0.0000000000
     27491      1916  TIP3      H1             -3.7263019382       12.4694009294       29.6592856618  TIP3      1724            0.0000000000
     27492      1916  TIP3      H2             -3.4899977435       13.9300345689       29.3157649155  TIP3      1724            0.0000000000
     27493      1917  TIP3      OH2           -14.0065162803       14.4735891664       30.0019753105  TIP3      1725            0.0000000000
     27494      1917  TIP3      H1            -14.2504168952       13.5282638509       29.9001778229  TIP3      1725            0.0000000000
     27495      1917  TIP3      H2            -13.0550822906       14.3633220983       29.8241115828  TIP3      1725            0.0000000000
     27496      1918  TIP3      OH2           -16.9495023830        7.7596753194       25.5325495871  TIP3      1726            0.0000000000
     27497      1918  TIP3      H1            -17.1763953113        8.6762999244       25.7879993429  TIP3      1726            0.0000000000
     27498      1918  TIP3      H2            -17.7653584878        7.3058584265       25.7840756346  TIP3      1726            0.0000000000
     27499      1919  TIP3      OH2           -16.8519844675       10.3554948257       28.1710996818  TIP3      1727            0.0000000000
     27500      1919  TIP3      H1            -16.5224274716        9.4469913599       28.3608963437  TIP3      1727            0.0000000000
     27501      1919  TIP3      H2            -16.0307957160       10.8683885917       28.1929760862  TIP3      1727            0.0000000000
     27502      1920  TIP3      OH2            -6.1751080345       18.5005342778       28.5723193371  TIP3      1728            0.0000000000
     27503      1920  TIP3      H1             -5.4208373820       18.0224456973       28.1528021751  TIP3      1728            0.0000000000
     27504      1920  TIP3      H2             -6.4866029397       17.7989117983       29.1591299681  TIP3      1728            0.0000000000
     27505      1921  TIP3      OH2            -8.9901631113       12.6797207796       31.3150737068  TIP3      1729            0.0000000000
     27506      1921  TIP3      H1             -8.7087999807       12.3296119377       30.4571329032  TIP3      1729            0.0000000000
     27507      1921  TIP3      H2             -8.1120959451       12.9358603689       31.6859186466  TIP3      1729            0.0000000000
     27508      1922  TIP3      OH2            -0.1274464679        4.1659884949       30.9845977527  TIP3      1730            0.0000000000
     27509      1922  TIP3      H1             -0.0838106000        4.6507688041       31.8327338653  TIP3      1730            0.0000000000
     27510      1922  TIP3      H2              0.8019765639        4.2711842043       30.6874069975  TIP3      1730            0.0000000000
     27511      1923  TIP3      OH2            -5.2031933063        7.2285956943       31.3084482417  TIP3      1731            0.0000000000
     27512      1923  TIP3      H1             -5.1232778691        6.2679646813       31.4650955780  TIP3      1731            0.0000000000
     27513      1923  TIP3      H2             -5.3597561390        7.2446512452       30.3422805909  TIP3      1731            0.0000000000
     27514      1924  TIP3      OH2           -12.2662811758        4.8962509302       28.0053872811  TIP3      1732            0.0000000000
     27515      1924  TIP3      H1            -12.1072848546        5.7507166967       27.5552697707  TIP3      1732            0.0000000000
     27516      1924  TIP3      H2            -12.7768173865        4.4439291955       27.3069588634  TIP3      1732            0.0000000000
     27517      1925  TIP3      OH2            -4.9810945399        5.3230074536       27.1120470580  TIP3      1733            0.0000000000
     27518      1925  TIP3      H1             -4.4243582109        4.8726908122       27.7906401682  TIP3      1733            0.0000000000
     27519      1925  TIP3      H2             -4.2519488403        5.7395971567       26.5998376098  TIP3      1733            0.0000000000
     27520      1926  TIP3      OH2           -15.7284316124        8.0040587028       29.0023919238  TIP3      1734            0.0000000000
     27521      1926  TIP3      H1            -15.1119531191        7.6797245393       29.6804367822  TIP3      1734            0.0000000000
     27522      1926  TIP3      H2            -15.4573339388        7.4441660388       28.2511106604  TIP3      1734            0.0000000000
     27523      1927  TIP3      OH2           -11.1923893698        9.2262169511       28.5315058990  TIP3      1735            0.0000000000
     27524      1927  TIP3      H1            -10.2381729971        9.0291704514       28.6182233853  TIP3      1735            0.0000000000
     27525      1927  TIP3      H2            -11.5041922391        8.3939166808       28.1221550282  TIP3      1735            0.0000000000
     27526      1928  TIP3      OH2            -0.1469605532        5.5088708066       33.5431821568  TIP3      1736            0.0000000000
     27527      1928  TIP3      H1             -0.4621702196        6.3322504325       33.1050880997  TIP3      1736            0.0000000000
     27528      1928  TIP3      H2              0.0707238083        5.8696949201       34.4225695367  TIP3      1736            0.0000000000
     27529      1929  TIP3      OH2           -13.3190834842        4.2075762821       32.2912097912  TIP3      1737            0.0000000000
     27530      1929  TIP3      H1            -13.7600868211        4.6999791783       31.5669863725  TIP3      1737            0.0000000000
     27531      1929  TIP3      H2            -13.8450049702        4.4827733975       33.0597696947  TIP3      1737            0.0000000000
     27532      1930  TIP3      OH2            -6.5552367122       13.7893264587       25.9887428702  TIP3      1738            0.0000000000
     27533      1930  TIP3      H1             -6.3077983342       13.6913076517       25.0671689326  TIP3      1738            0.0000000000
     27534      1930  TIP3      H2             -6.9507542223       14.6871890286       25.9819910303  TIP3      1738            0.0000000000
     27535      1931  TIP3      OH2           -11.3548814481       11.7636426838       32.0997302517  TIP3      1739            0.0000000000
     27536      1931  TIP3      H1            -11.9626482800       12.5179899053       32.2756567017  TIP3      1739            0.0000000000
     27537      1931  TIP3      H2            -10.5644191502       12.2429923310       31.7662881331  TIP3      1739            0.0000000000
     27538      1932  TIP3      OH2            -3.1507979642        4.7141202051       28.9245822033  TIP3      1740            0.0000000000
     27539      1932  TIP3      H1             -2.7121697270        4.0318880197       29.4405167499  TIP3      1740            0.0000000000
     27540      1932  TIP3      H2             -2.3868163174        5.2570838028       28.6853273440  TIP3      1740            0.0000000000
     27541      1933  TIP3      OH2           -13.8712086103        6.0680208721       30.2730492214  TIP3      1741            0.0000000000
     27542      1933  TIP3      H1            -13.2337535753        6.7041935556       30.6609793463  TIP3      1741            0.0000000000
     27543      1933  TIP3      H2            -13.3530516086        5.6703808440       29.5467096025  TIP3      1741            0.0000000000
     27544      1934  TIP3      OH2           -12.6340733704       13.9481275102       33.0916626110  TIP3      1742            0.0000000000
     27545      1934  TIP3      H1            -12.8583488726       14.6295386893       32.4434428542  TIP3      1742            0.0000000000
     27546      1934  TIP3      H2            -13.4905893550       13.8835569204       33.5863981013  TIP3      1742            0.0000000000
     27547      1935  TIP3      OH2            -2.9661523450       15.1170032987       30.7186298970  TIP3      1743            0.0000000000
     27548      1935  TIP3      H1             -3.8964703077       15.2895251301       30.9855948583  TIP3      1743            0.0000000000
     27549      1935  TIP3      H2             -2.7542522258       15.9904962026       30.3453909022  TIP3      1743            0.0000000000
     27550      1936  TIP3      OH2            -3.1225471847        3.3988120598       32.2234871937  TIP3      1744            0.0000000000
     27551      1936  TIP3      H1             -3.8909538588        3.5720976658       31.6418314210  TIP3      1744            0.0000000000
     27552      1936  TIP3      H2             -2.3755055524        3.6709779907       31.6715316177  TIP3      1744            0.0000000000
     27553      1937  TIP3      OH2            -9.9973110352        1.5200560271       29.8023516101  TIP3      1745            0.0000000000
     27554      1937  TIP3      H1            -10.3083004567        0.6059593086       29.7812665570  TIP3      1745            0.0000000000
     27555      1937  TIP3      H2            -10.8505871822        1.9748124296       30.0427931875  TIP3      1745            0.0000000000
     27556      1938  TIP3      OH2            -4.5267464593       16.7615023281       27.4294428085  TIP3      1746            0.0000000000
     27557      1938  TIP3      H1             -4.3072507573       16.0173109796       26.8421807694  TIP3      1746            0.0000000000
     27558      1938  TIP3      H2             -3.7583867475       17.3623004318       27.2721494824  TIP3      1746            0.0000000000
     27559      1939  TIP3      OH2            -3.3243379559       14.4825573095       25.8760145813  TIP3      1747            0.0000000000
     27560      1939  TIP3      H1             -3.3509687060       13.7892333825       25.1914941571  TIP3      1747            0.0000000000
     27561      1939  TIP3      H2             -3.5238219563       13.9652801160       26.6776834234  TIP3      1747            0.0000000000
     27562      1940  TIP3      OH2            -1.9207880217       13.4136738514       34.6105406692  TIP3      1748            0.0000000000
     27563      1940  TIP3      H1             -1.6991185292       12.6804241840       33.9887301720  TIP3      1748            0.0000000000
     27564      1940  TIP3      H2             -1.6931357722       14.1900653524       34.0478767264  TIP3      1748            0.0000000000
     27565      1941  TIP3      OH2             0.1269902955        9.9545966295       32.5387197400  TIP3      1749            0.0000000000
     27566      1941  TIP3      H1             -0.5923369984       10.6036091551       32.4188819736  TIP3      1749            0.0000000000
     27567      1941  TIP3      H2              0.7395115784       10.2522499423       31.8306846197  TIP3      1749            0.0000000000
     27568      1942  TIP3      OH2            -3.9447755929        9.4054459831       25.6668469234  TIP3      1750            0.0000000000
     27569      1942  TIP3      H1             -4.6580068672       10.0517333218       25.8558976367  TIP3      1750            0.0000000000
     27570      1942  TIP3      H2             -3.2210551233        9.7414494377       26.2118326812  TIP3      1750            0.0000000000
     27571      1943  TIP3      OH2            -3.7664824501        9.0098401251       34.4959642140  TIP3      1751            0.0000000000
     27572      1943  TIP3      H1             -3.8362229479        9.9239415539       34.7971723660  TIP3      1751            0.0000000000
     27573      1943  TIP3      H2             -4.4559816718        8.9937160061       33.8194961320  TIP3      1751            0.0000000000
     27574      1944  TIP3      OH2           -12.0820329020       11.0261477677       26.8272695192  TIP3      1752            0.0000000000
     27575      1944  TIP3      H1            -12.4323190532       10.4359467071       26.1374296675  TIP3      1752            0.0000000000
     27576      1944  TIP3      H2            -11.6531557675       10.4076694880       27.4604206882  TIP3      1752            0.0000000000
     27577      1945  TIP3      OH2           -11.0535242625       14.1313498468       29.9441739868  TIP3      1753            0.0000000000
     27578      1945  TIP3      H1            -10.8663412224       14.1301977540       28.9889733040  TIP3      1753            0.0000000000
     27579      1945  TIP3      H2            -10.2279010050       13.8303332344       30.3665759669  TIP3      1753            0.0000000000
     27580      1946  TIP3      OH2           -12.1676630279        9.5684280417       30.9429647558  TIP3      1754            0.0000000000
     27581      1946  TIP3      H1            -11.8155771610        9.6124656098       30.0246174440  TIP3      1754            0.0000000000
     27582      1946  TIP3      H2            -11.7428415986       10.3481067211       31.3774166372  TIP3      1754            0.0000000000
     27583      1947  TIP3      OH2            -5.4624701702       15.5830856443       31.5770734951  TIP3      1755            0.0000000000
     27584      1947  TIP3      H1             -5.7602581292       16.1576344462       32.2998086920  TIP3      1755            0.0000000000
     27585      1947  TIP3      H2             -5.7425439408       14.7005827814       31.8958361279  TIP3      1755            0.0000000000
     27586      1948  TIP3      OH2           -10.9695622692       14.3275906840       35.1664938407  TIP3      1756            0.0000000000
     27587      1948  TIP3      H1            -11.7027704963       14.7949322683       35.6231224835  TIP3      1756            0.0000000000
     27588      1948  TIP3      H2            -11.4079170843       14.1478570329       34.3036215953  TIP3      1756            0.0000000000
     27589      1949  TIP3      OH2           -14.0071277999       10.6017347325       34.1478428627  TIP3      1757            0.0000000000
     27590      1949  TIP3      H1            -13.7728381688       11.3844445605       34.6652716695  TIP3      1757            0.0000000000
     27591      1949  TIP3      H2            -14.6116353001       10.1800875483       34.7815878813  TIP3      1757            0.0000000000
     27592      1950  TIP3      OH2            -7.3132956530       16.9729594330       26.0418245697  TIP3      1758            0.0000000000
     27593      1950  TIP3      H1             -6.8255626265       17.3407254406       26.7981028646  TIP3      1758            0.0000000000
     27594      1950  TIP3      H2             -7.6367826896       17.7980475561       25.6057493630  TIP3      1758            0.0000000000
     27595      1951  TIP3      OH2           -12.8473744456       16.0269671922       36.3424897464  TIP3      1759            0.0000000000
     27596      1951  TIP3      H1            -12.9506790097       16.4256232410       35.4523910587  TIP3      1759            0.0000000000
     27597      1951  TIP3      H2            -13.7875472217       15.8008041761       36.5275904751  TIP3      1759            0.0000000000
     27598      1952  TIP3      OH2           -13.3958890245        9.8099508574       24.7592450136  TIP3      1760            0.0000000000
     27599      1952  TIP3      H1            -13.7501600464       10.7101789903       24.6923851204  TIP3      1760            0.0000000000
     27600      1952  TIP3      H2            -14.1867941222        9.2567996419       24.7941360950  TIP3      1760            0.0000000000
     27601      1953  TIP3      OH2           -17.0039307514       12.5661000707       33.7456551740  TIP3      1761            0.0000000000
     27602      1953  TIP3      H1            -17.4636161858       12.4053180748       32.9119633176  TIP3      1761            0.0000000000
     27603      1953  TIP3      H2            -16.6384202044       11.6695360214       33.9046185033  TIP3      1761            0.0000000000
     27604      1954  TIP3      OH2           -17.3468143986       15.2945923934       30.3293172372  TIP3      1762            0.0000000000
     27605      1954  TIP3      H1            -16.3998541137       15.1509400631       30.1936015580  TIP3      1762            0.0000000000
     27606      1954  TIP3      H2            -17.3367068020       15.9980371316       30.9890083717  TIP3      1762            0.0000000000
     27607      1955  TIP3      OH2             0.6551030290       16.0057735675       36.1238886422  TIP3      1763            0.0000000000
     27608      1955  TIP3      H1              0.5291879655       15.0642236298       36.3492479641  TIP3      1763            0.0000000000
     27609      1955  TIP3      H2             -0.1940623605       16.3596957755       36.4928376848  TIP3      1763            0.0000000000
     27610      1956  TIP3      OH2            -8.3877736102       15.3835066562       35.1710664423  TIP3      1764            0.0000000000
     27611      1956  TIP3      H1             -8.2430473522       16.0593595054       35.8589394781  TIP3      1764            0.0000000000
     27612      1956  TIP3      H2             -9.3333339325       15.1421067580       35.2631683009  TIP3      1764            0.0000000000
     27613      1957  TIP3      OH2            -8.0495532825       19.1978969639       24.6417759025  TIP3      1765            0.0000000000
     27614      1957  TIP3      H1             -7.8914952673       19.3232065403       23.6821948498  TIP3      1765            0.0000000000
     27615      1957  TIP3      H2             -7.7940502940       20.0745169760       24.9926473413  TIP3      1765            0.0000000000
     27616      1958  TIP3      OH2           -14.2374922962       17.9872348172       26.7472760753  TIP3      1766            0.0000000000
     27617      1958  TIP3      H1            -14.0521493060       17.6269822219       27.6420658341  TIP3      1766            0.0000000000
     27618      1958  TIP3      H2            -15.1445276692       17.6635227882       26.5975969140  TIP3      1766            0.0000000000
     27619      1959  TIP3      OH2            -5.2402207354       18.5360416354       24.7136055165  TIP3      1767            0.0000000000
     27620      1959  TIP3      H1             -6.2014894657       18.4793240922       24.5684700358  TIP3      1767            0.0000000000
     27621      1959  TIP3      H2             -4.9677653989       17.6107443318       24.7045222414  TIP3      1767            0.0000000000
     27622      1960  TIP3      OH2            -2.1736185208        7.3908371132       36.4816576900  TIP3      1768            0.0000000000
     27623      1960  TIP3      H1             -2.8313445954        7.7737405306       35.8584922491  TIP3      1768            0.0000000000
     27624      1960  TIP3      H2             -2.2963448248        6.4426038582       36.2692679483  TIP3      1768            0.0000000000
     27625      1961  TIP3      OH2           -14.8280612176       13.9562046510       34.5936182578  TIP3      1769            0.0000000000
     27626      1961  TIP3      H1            -14.7591011185       13.5585259255       35.4852801086  TIP3      1769            0.0000000000
     27627      1961  TIP3      H2            -15.6793595995       13.5697927259       34.2741703856  TIP3      1769            0.0000000000
     27628      1962  TIP3      OH2           -12.2804327407        2.5541441468       30.5428858946  TIP3      1770            0.0000000000
     27629      1962  TIP3      H1            -13.2030057813        2.4570992823       30.2363784972  TIP3      1770            0.0000000000
     27630      1962  TIP3      H2            -12.4277568787        3.0816679404       31.3586485858  TIP3      1770            0.0000000000
     27631      1963  TIP3      OH2            -7.2318092909        2.0564532850       33.7489916911  TIP3      1771            0.0000000000
     27632      1963  TIP3      H1             -6.9135246339        1.6220896761       34.5723956329  TIP3      1771            0.0000000000
     27633      1963  TIP3      H2             -8.1995067293        2.0617473600       33.8851527180  TIP3      1771            0.0000000000
     27634      1964  TIP3      OH2            -4.6403572330        6.2395761957       34.8676534928  TIP3      1772            0.0000000000
     27635      1964  TIP3      H1             -5.2488465054        6.0046384032       35.6215314410  TIP3      1772            0.0000000000
     27636      1964  TIP3      H2             -5.0847861130        7.0016551206       34.4736778324  TIP3      1772            0.0000000000
     27637      1965  TIP3      OH2           -11.9746863048        7.1453888880       31.9191201026  TIP3      1773            0.0000000000
     27638      1965  TIP3      H1            -12.8370210870        7.2189095989       32.3669436399  TIP3      1773            0.0000000000
     27639      1965  TIP3      H2            -11.8900808606        8.0578753289       31.5598606243  TIP3      1773            0.0000000000
     27640      1966  TIP3      OH2           -12.0672488671        7.2404822019       26.7034688098  TIP3      1774            0.0000000000
     27641      1966  TIP3      H1            -13.0318337573        7.1598377539       26.5264843903  TIP3      1774            0.0000000000
     27642      1966  TIP3      H2            -11.7071371653        7.5036527613       25.8417249131  TIP3      1774            0.0000000000
     27643      1967  TIP3      OH2            -7.6816062594        8.4418775229       37.0145355256  TIP3      1775            0.0000000000
     27644      1967  TIP3      H1             -8.0966396506        7.6056272026       37.2966956770  TIP3      1775            0.0000000000
     27645      1967  TIP3      H2             -6.8526000278        8.3882713530       37.5215379290  TIP3      1775            0.0000000000
     27646      1968  TIP3      OH2            -5.5965188477        7.7075414799       28.6330955016  TIP3      1776            0.0000000000
     27647      1968  TIP3      H1             -5.6740617986        8.5067121377       28.0771762376  TIP3      1776            0.0000000000
     27648      1968  TIP3      H2             -5.5233626036        6.9907691551       27.9754853583  TIP3      1776            0.0000000000
     27649      1969  TIP3      OH2           -14.6627092882        7.4063671923       32.8986369351  TIP3      1777            0.0000000000
     27650      1969  TIP3      H1            -14.2819994387        7.8484145115       33.6777916996  TIP3      1777            0.0000000000
     27651      1969  TIP3      H2            -15.0184862552        6.5732711014       33.2855146041  TIP3      1777            0.0000000000
     27652      1970  TIP3      OH2           -17.5479069185        4.5906075401       27.6921956320  TIP3      1778            0.0000000000
     27653      1970  TIP3      H1            -16.7214148504        4.4187491066       28.1659821103  TIP3      1778            0.0000000000
     27654      1970  TIP3      H2            -17.3693473004        4.3180448504       26.7710731227  TIP3      1778            0.0000000000
     27655      1971  TIP3      OH2           -16.9636049981        5.4384774459       22.7218559785  TIP3      1779            0.0000000000
     27656      1971  TIP3      H1            -16.6532402968        5.9397993581       21.9377927525  TIP3      1779            0.0000000000
     27657      1971  TIP3      H2            -17.0452669670        6.1697645725       23.3569686025  TIP3      1779            0.0000000000
     27658      1972  TIP3      OH2            -6.4916653740        9.1005803685       32.7484465762  TIP3      1780            0.0000000000
     27659      1972  TIP3      H1             -5.9442003503        8.3952495146       32.3312133922  TIP3      1780            0.0000000000
     27660      1972  TIP3      H2             -7.0755182144        8.5764106825       33.3553730114  TIP3      1780            0.0000000000
     27661      1973  TIP3      OH2            -9.2428805499        4.8265822571       27.6626580652  TIP3      1781            0.0000000000
     27662      1973  TIP3      H1            -10.0831802399        4.8197056929       28.1554537198  TIP3      1781            0.0000000000
     27663      1973  TIP3      H2             -8.6045582971        4.5187694303       28.3398471321  TIP3      1781            0.0000000000
     27664      1974  TIP3      OH2           -14.7364952697        6.5110892862       26.6266333456  TIP3      1782            0.0000000000
     27665      1974  TIP3      H1            -15.4597281780        6.8203814310       26.0505710984  TIP3      1782            0.0000000000
     27666      1974  TIP3      H2            -14.5024550338        5.6331373006       26.2484401504  TIP3      1782            0.0000000000
     27667      1975  TIP3      OH2            -5.4290105879        4.3131773759       30.9708542550  TIP3      1783            0.0000000000
     27668      1975  TIP3      H1             -6.2588724512        4.0874110581       31.4259924877  TIP3      1783            0.0000000000
     27669      1975  TIP3      H2             -5.5459589703        3.8540194381       30.1228325292  TIP3      1783            0.0000000000
     27670      1976  TIP3      OH2           -12.8484831121        8.3467066253       21.2372234552  TIP3      1784            0.0000000000
     27671      1976  TIP3      H1            -13.2380055826        7.8364413680       21.9603489976  TIP3      1784            0.0000000000
     27672      1976  TIP3      H2            -12.1617802668        8.8409425948       21.6982780338  TIP3      1784            0.0000000000
     27673      1977  TIP3      OH2            -2.3745042716       19.6995456428       37.5883530862  TIP3      1785            0.0000000000
     27674      1977  TIP3      H1             -1.8270957913       19.9388797665       36.8140633524  TIP3      1785            0.0000000000
     27675      1977  TIP3      H2             -1.7035076378       19.7495719791       38.2897180082  TIP3      1785            0.0000000000
     27676      1978  TIP3      OH2           -14.4405274396       12.1780553785       36.8950746026  TIP3      1786            0.0000000000
     27677      1978  TIP3      H1            -13.8331194438       12.2505726039       37.6626046332  TIP3      1786            0.0000000000
     27678      1978  TIP3      H2            -15.3011790193       12.2484239867       37.3594002277  TIP3      1786            0.0000000000
     27679      1979  TIP3      OH2            -8.6746193261        8.1094993170       29.0258584349  TIP3      1787            0.0000000000
     27680      1979  TIP3      H1             -7.8369557608        7.6428162776       28.8759738761  TIP3      1787            0.0000000000
     27681      1979  TIP3      H2             -8.9616017565        7.7226783647       29.8566991228  TIP3      1787            0.0000000000
     27682      1980  TIP3      OH2           -13.8645440356        3.9431746721       26.0272914201  TIP3      1788            0.0000000000
     27683      1980  TIP3      H1            -14.4663753195        3.2569162318       26.4053210384  TIP3      1788            0.0000000000
     27684      1980  TIP3      H2            -13.2519566446        3.3673499062       25.5477752781  TIP3      1788            0.0000000000
     27685      1981  TIP3      OH2            -9.6629779394        5.7965663619       31.7269628323  TIP3      1789            0.0000000000
     27686      1981  TIP3      H1            -10.4854376071        6.3274146307       31.7265960982  TIP3      1789            0.0000000000
     27687      1981  TIP3      H2             -9.1154251276        6.2931819003       32.3530550066  TIP3      1789            0.0000000000
     27688      1982  TIP3      OH2            -9.7504791340       11.9395132774       23.7777672028  TIP3      1790            0.0000000000
     27689      1982  TIP3      H1             -9.7905726312       12.7418962329       23.2365066142  TIP3      1790            0.0000000000
     27690      1982  TIP3      H2             -9.8675138059       12.3094374534       24.6762688571  TIP3      1790            0.0000000000
     27691      1983  TIP3      OH2            -1.6874280359       11.8747921416       32.4725024451  TIP3      1791            0.0000000000
     27692      1983  TIP3      H1             -1.1983180597       12.4630449556       31.8449288967  TIP3      1791            0.0000000000
     27693      1983  TIP3      H2             -2.5589943559       11.8227715296       32.0524733902  TIP3      1791            0.0000000000
     27694      1984  TIP3      OH2            -8.0995028277       12.6662528751       34.8786183878  TIP3      1792            0.0000000000
     27695      1984  TIP3      H1             -8.3074443159       12.5738386743       35.8164254878  TIP3      1792            0.0000000000
     27696      1984  TIP3      H2             -8.2574515871       13.6192135030       34.7611961873  TIP3      1792            0.0000000000
     27697      1985  TIP3      OH2           -13.8764016769       11.7686021425       29.6352974848  TIP3      1793            0.0000000000
     27698      1985  TIP3      H1            -13.1298491515       11.5071109961       29.0746086855  TIP3      1793            0.0000000000
     27699      1985  TIP3      H2            -14.0045811121       10.9637902193       30.1738485755  TIP3      1793            0.0000000000
     27700      1986  TIP3      OH2           -17.1947721812       10.0412635250       34.8737854190  TIP3      1794            0.0000000000
     27701      1986  TIP3      H1            -17.1881842379        9.3689286378       35.5755666331  TIP3      1794            0.0000000000
     27702      1986  TIP3      H2            -17.7621323860        9.6643675225       34.1744740932  TIP3      1794            0.0000000000
     27703      1987  TIP3      OH2           -10.1484570170        9.7443683549       36.5821653429  TIP3      1795            0.0000000000
     27704      1987  TIP3      H1            -10.5121968614        9.1161908544       35.9467501734  TIP3      1795            0.0000000000
     27705      1987  TIP3      H2             -9.2158027842        9.4419279129       36.6382837663  TIP3      1795            0.0000000000
     27706      1988  TIP3      OH2            -5.1732676688       14.9442566716       35.2325125800  TIP3      1796            0.0000000000
     27707      1988  TIP3      H1             -5.9061027958       15.1683882073       34.6434466782  TIP3      1796            0.0000000000
     27708      1988  TIP3      H2             -5.4550296378       15.4301569586       36.0341265168  TIP3      1796            0.0000000000
     27709      1989  TIP3      OH2            -0.4119624014        7.4435912739       23.9734104157  TIP3      1797            0.0000000000
     27710      1989  TIP3      H1             -0.4384051962        6.9529641425       23.1468239418  TIP3      1797            0.0000000000
     27711      1989  TIP3      H2             -0.1958150820        8.3417026814       23.6269243144  TIP3      1797            0.0000000000
     27712      1990  TIP3      OH2             0.4490332079       13.2491831619       35.9720436571  TIP3      1798            0.0000000000
     27713      1990  TIP3      H1             -0.4748288120       13.3737717475       35.6426378723  TIP3      1798            0.0000000000
     27714      1990  TIP3      H2              0.9527650175       13.1627601183       35.1277644003  TIP3      1798            0.0000000000
     27715      1991  TIP3      OH2            -4.1180124368       10.8883000095       30.7108735022  TIP3      1799            0.0000000000
     27716      1991  TIP3      H1             -5.0431075178       10.6139217041       30.5861087098  TIP3      1799            0.0000000000
     27717      1991  TIP3      H2             -3.6404460318       10.1908051419       30.2037560152  TIP3      1799            0.0000000000
     27718      1992  TIP3      OH2           -11.7622314081       15.2059871359       27.1845214450  TIP3      1800            0.0000000000
     27719      1992  TIP3      H1            -11.1366109813       15.8027426947       26.7343972784  TIP3      1800            0.0000000000
     27720      1992  TIP3      H2            -12.6005307487       15.6178171905       26.9492679488  TIP3      1800            0.0000000000
     27721      1993  TIP3      OH2           -10.3467190935       13.0046983664       26.3165920619  TIP3      1801            0.0000000000
     27722      1993  TIP3      H1            -10.9280647908       13.7714966006       26.4931455933  TIP3      1801            0.0000000000
     27723      1993  TIP3      H2            -10.8818970837       12.2716846543       26.6735847670  TIP3      1801            0.0000000000
     27724      1994  TIP3      OH2            -9.8214663012       17.0809689510       33.1714602467  TIP3      1802            0.0000000000
     27725      1994  TIP3      H1             -9.1976523474       17.7315819077       32.7969613136  TIP3      1802            0.0000000000
     27726      1994  TIP3      H2             -9.2881987140       16.7161653008       33.8993609171  TIP3      1802            0.0000000000
     27727      1995  TIP3      OH2           -11.5916815810       18.1495664486       26.0161627746  TIP3      1803            0.0000000000
     27728      1995  TIP3      H1            -12.5318518962       18.0290984087       26.2557191768  TIP3      1803            0.0000000000
     27729      1995  TIP3      H2            -11.4848577857       19.1190429107       26.1069343079  TIP3      1803            0.0000000000
     27730      1996  TIP3      OH2            -6.5933602910       13.0204773152       32.5180601134  TIP3      1804            0.0000000000
     27731      1996  TIP3      H1             -6.9918961889       12.7209636422       33.3736793605  TIP3      1804            0.0000000000
     27732      1996  TIP3      H2             -6.1610253430       12.2078749802       32.1984748482  TIP3      1804            0.0000000000
     27733      1997  TIP3      OH2            -3.4438329424       17.5578410610       34.9181096306  TIP3      1805            0.0000000000
     27734      1997  TIP3      H1             -4.2987232389       17.1277593042       34.7204968206  TIP3      1805            0.0000000000
     27735      1997  TIP3      H2             -3.3516067242       18.1598508471       34.1434058622  TIP3      1805            0.0000000000
     27736      1998  TIP3      OH2             0.1950956803       18.5349560489       22.2277247341  TIP3      1806            0.0000000000
     27737      1998  TIP3      H1              0.5117652430       18.7543335375       21.3474876435  TIP3      1806            0.0000000000
     27738      1998  TIP3      H2             -0.7351951320       18.2667249101       22.0159526914  TIP3      1806            0.0000000000
     27739      1999  TIP3      OH2           -14.9871760271        5.0778262807       34.4153238764  TIP3      1807            0.0000000000
     27740      1999  TIP3      H1            -15.6421485090        5.4178208595       35.0531155009  TIP3      1807            0.0000000000
     27741      1999  TIP3      H2            -15.1307953205        4.1278192491       34.5331678416  TIP3      1807            0.0000000000
     27742      2000  TIP3      OH2            -3.1365060990       12.1091534945       24.1374830543  TIP3      1808            0.0000000000
     27743      2000  TIP3      H1             -2.9245336865       11.1783645575       23.9519518272  TIP3      1808            0.0000000000
     27744      2000  TIP3      H2             -2.3138097277       12.5522532796       23.8501461888  TIP3      1808            0.0000000000
     27745      2001  TIP3      OH2           -15.7889710234       16.6616567884       32.5821333003  TIP3      1809            0.0000000000
     27746      2001  TIP3      H1            -15.1424680043       15.9549891437       32.7397633403  TIP3      1809            0.0000000000
     27747      2001  TIP3      H2            -15.6182891048       17.2364300183       33.3393924964  TIP3      1809            0.0000000000
     27748      2002  TIP3      OH2            -6.8023486467        4.7968462140       33.6862955359  TIP3      1810            0.0000000000
     27749      2002  TIP3      H1             -5.8611628963        4.9647642385       33.8380752053  TIP3      1810            0.0000000000
     27750      2002  TIP3      H2             -6.8798467550        3.8283444021       33.8294387412  TIP3      1810            0.0000000000
     27751      2003  TIP3      OH2            -6.0939940821        4.6726203990       24.7951136725  TIP3      1811            0.0000000000
     27752      2003  TIP3      H1             -5.4654083048        5.1319236071       24.2137725596  TIP3      1811            0.0000000000
     27753      2003  TIP3      H2             -5.7098704493        4.8449981678       25.6804133411  TIP3      1811            0.0000000000
     27754      2004  TIP3      OH2            -8.9465426295        6.1604736352       25.1662506929  TIP3      1812            0.0000000000
     27755      2004  TIP3      H1             -8.0506308437        6.4061105503       25.4205004711  TIP3      1812            0.0000000000
     27756      2004  TIP3      H2             -9.3035464599        5.7660991937       25.9898545377  TIP3      1812            0.0000000000
     27757      2005  TIP3      OH2            -7.7250128161        7.3298022532       34.3102055380  TIP3      1813            0.0000000000
     27758      2005  TIP3      H1             -7.7185761199        7.4678033599       35.2828931963  TIP3      1813            0.0000000000
     27759      2005  TIP3      H2             -7.4644948183        6.3855920059       34.2002550728  TIP3      1813            0.0000000000
     27760      2006  TIP3      OH2            -7.9730600954        2.9531539716       26.0378013328  TIP3      1814            0.0000000000
     27761      2006  TIP3      H1             -8.4612034772        3.6179297836       26.5735447490  TIP3      1814            0.0000000000
     27762      2006  TIP3      H2             -7.2460805579        3.4977591064       25.6560819996  TIP3      1814            0.0000000000
     27763      2007  TIP3      OH2           -11.1518236925       17.8523302661       23.3467859853  TIP3      1815            0.0000000000
     27764      2007  TIP3      H1            -10.4998217238       18.4628838268       22.9748460480  TIP3      1815            0.0000000000
     27765      2007  TIP3      H2            -11.1175987609       18.0228065041       24.3116229028  TIP3      1815            0.0000000000
     27766      2008  TIP3      OH2           -12.1236484580        4.6608471739       22.3460748078  TIP3      1816            0.0000000000
     27767      2008  TIP3      H1            -12.5447994031        4.8463762804       23.1953465834  TIP3      1816            0.0000000000
     27768      2008  TIP3      H2            -11.2423387770        4.3223856697       22.6213137719  TIP3      1816            0.0000000000
     27769      2009  TIP3      OH2            -2.1872986101        4.9211300994       35.2556902694  TIP3      1817            0.0000000000
     27770      2009  TIP3      H1             -3.1534922124        5.0529146470       35.1744079249  TIP3      1817            0.0000000000
     27771      2009  TIP3      H2             -1.8878908435        5.0409830120       34.3340143032  TIP3      1817            0.0000000000
     27772      2010  TIP3      OH2            -2.9886124594        8.7511432911       29.2851570875  TIP3      1818            0.0000000000
     27773      2010  TIP3      H1             -3.7900340064        8.2116477563       29.2113929206  TIP3      1818            0.0000000000
     27774      2010  TIP3      H2             -2.3824405295        8.1243398980       29.7394591141  TIP3      1818            0.0000000000
     27775      2011  TIP3      OH2           -15.8055938597        7.0558042772       20.7113300787  TIP3      1819            0.0000000000
     27776      2011  TIP3      H1            -15.2646190895        7.6873534790       20.2221006540  TIP3      1819            0.0000000000
     27777      2011  TIP3      H2            -16.0651476910        6.4358620668       20.0103867909  TIP3      1819            0.0000000000
     27778      2012  TIP3      OH2            -2.6151696841       17.9171951295       30.7250639217  TIP3      1820            0.0000000000
     27779      2012  TIP3      H1             -2.4956120556       18.5933907347       30.0221168236  TIP3      1820            0.0000000000
     27780      2012  TIP3      H2             -1.6776341702       17.7929682298       30.9588659092  TIP3      1820            0.0000000000
     27781      2013  TIP3      OH2           -14.8329695071        2.0059857026       29.9576472773  TIP3      1821            0.0000000000
     27782      2013  TIP3      H1            -14.8489059002        1.8097518280       28.9931404721  TIP3      1821            0.0000000000
     27783      2013  TIP3      H2            -15.2170294891        1.1777144516       30.3153566363  TIP3      1821            0.0000000000
     27784      2014  TIP3      OH2           -16.2622533393       15.7646930869       25.6420007622  TIP3      1822            0.0000000000
     27785      2014  TIP3      H1            -17.0893139640       16.2005180836       25.8629146181  TIP3      1822            0.0000000000
     27786      2014  TIP3      H2            -15.9724292278       16.3638559222       24.9249463014  TIP3      1822            0.0000000000
     27787      2015  TIP3      OH2           -16.7671624928       18.9282107223       37.2036083023  TIP3      1823            0.0000000000
     27788      2015  TIP3      H1            -16.0010701824       18.8017842396       37.8182725412  TIP3      1823            0.0000000000
     27789      2015  TIP3      H2            -17.0640375633       18.0019340741       37.1664401288  TIP3      1823            0.0000000000
     27790      2016  TIP3      OH2           -11.9917101344       17.4196482045       38.6075081553  TIP3      1824            0.0000000000
     27791      2016  TIP3      H1            -11.0700368940       17.1159805795       38.6221932662  TIP3      1824            0.0000000000
     27792      2016  TIP3      H2            -12.2900454014       17.0235094607       37.7649524697  TIP3      1824            0.0000000000
     27793      2017  TIP3      OH2            -5.7588077761       16.2864148558       37.5256941228  TIP3      1825            0.0000000000
     27794      2017  TIP3      H1             -5.9706735093       15.4219688105       37.9461704842  TIP3      1825            0.0000000000
     27795      2017  TIP3      H2             -4.8408742027       16.3709473075       37.8786583196  TIP3      1825            0.0000000000
     27796      2018  TIP3      OH2           -16.9715036924       12.3368299769       37.9931084148  TIP3      1826            0.0000000000
     27797      2018  TIP3      H1            -17.3851148323       11.4598114674       38.0465440524  TIP3      1826            0.0000000000
     27798      2018  TIP3      H2            -17.4315068608       12.7406634000       37.2270073466  TIP3      1826            0.0000000000
     27799      2019  TIP3      OH2           -10.2988475847       12.3979416121       37.0310101172  TIP3      1827            0.0000000000
     27800      2019  TIP3      H1            -10.5012446658       12.9973520493       36.2756101151  TIP3      1827            0.0000000000
     27801      2019  TIP3      H2            -10.3039190353       11.4961460430       36.6159126348  TIP3      1827            0.0000000000
     27802      2020  TIP3      OH2            -4.4227847124       12.2611383087       35.1862624192  TIP3      1828            0.0000000000
     27803      2020  TIP3      H1             -3.5737375488       12.7497917601       35.1147047131  TIP3      1828            0.0000000000
     27804      2020  TIP3      H2             -5.0024499693       13.0500497235       35.2356327432  TIP3      1828            0.0000000000
     27805      2021  TIP3      OH2           -15.4220645823        9.2747402540       37.5350112593  TIP3      1829            0.0000000000
     27806      2021  TIP3      H1            -14.7004556772        8.7241660133       37.8593987579  TIP3      1829            0.0000000000
     27807      2021  TIP3      H2            -15.3476120152       10.0426314704       38.1437816129  TIP3      1829            0.0000000000
     27808      2022  TIP3      OH2           -12.1281006061        8.6332034614       34.4369720642  TIP3      1830            0.0000000000
     27809      2022  TIP3      H1            -12.5993215061        9.4879909705       34.3724208960  TIP3      1830            0.0000000000
     27810      2022  TIP3      H2            -11.3689008217        8.8436618744       33.8625742823  TIP3      1830            0.0000000000
     27811      2023  TIP3      OH2            -6.5536860516       11.4470784279       38.2686419569  TIP3      1831            0.0000000000
     27812      2023  TIP3      H1             -6.1653772601       10.9888228238       37.4970275723  TIP3      1831            0.0000000000
     27813      2023  TIP3      H2             -6.8127039391       10.7141523245       38.8559243457  TIP3      1831            0.0000000000
     27814      2024  TIP3      OH2            -1.0471447540       11.5106352132       20.5611057972  TIP3      1832            0.0000000000
     27815      2024  TIP3      H1             -1.1641114151       11.0606925726       19.7228916010  TIP3      1832            0.0000000000
     27816      2024  TIP3      H2             -1.0774551133       12.4441411848       20.3115062510  TIP3      1832            0.0000000000
     27817      2025  TIP3      OH2           -10.8158901118        6.3987954290       35.5583249513  TIP3      1833            0.0000000000
     27818      2025  TIP3      H1            -10.8244589874        5.7116812787       34.8558562064  TIP3      1833            0.0000000000
     27819      2025  TIP3      H2            -11.0964517356        7.1859193856       35.0469103098  TIP3      1833            0.0000000000
     27820      2026  TIP3      OH2           -10.8482088024        4.3154191307       33.5075649731  TIP3      1834            0.0000000000
     27821      2026  TIP3      H1            -10.2890683268        4.6779252422       32.7770343099  TIP3      1834            0.0000000000
     27822      2026  TIP3      H2            -11.7381165960        4.4240615603       33.1179388238  TIP3      1834            0.0000000000
     27823      2027  TIP3      OH2            -9.6986251395       10.0471799875       33.3876943559  TIP3      1835            0.0000000000
     27824      2027  TIP3      H1             -8.8589040321       10.5003423374       33.2215013903  TIP3      1835            0.0000000000
     27825      2027  TIP3      H2            -10.3071804988       10.7621186977       33.1094685873  TIP3      1835            0.0000000000
     27826      2028  TIP3      OH2            -5.6070496025        7.6717354827       38.8652342180  TIP3      1836            0.0000000000
     27827      2028  TIP3      H1             -5.4924357907        6.8039599791       39.3181770638  TIP3      1836            0.0000000000
     27828      2028  TIP3      H2             -4.7002269830        8.0043014610       38.8633129700  TIP3      1836            0.0000000000
     27829      2029  TIP3      OH2            -3.6366286707       10.7643458204       37.2308139744  TIP3      1837            0.0000000000
     27830      2029  TIP3      H1             -4.0524996469       11.1951023797       36.4573313432  TIP3      1837            0.0000000000
     27831      2029  TIP3      H2             -2.7418341480       10.5642931805       36.8835388429  TIP3      1837            0.0000000000
     27832      2030  TIP3      OH2           -12.9047729307        7.0623862542       37.8090139174  TIP3      1838            0.0000000000
     27833      2030  TIP3      H1            -13.6120936940        6.4859177664       37.4364070557  TIP3      1838            0.0000000000
     27834      2030  TIP3      H2            -12.3293613014        7.1963447464       37.0403168494  TIP3      1838            0.0000000000
     27835      2031  TIP3      OH2           -10.0444561313        1.7682497430       33.6446913315  TIP3      1839            0.0000000000
     27836      2031  TIP3      H1            -10.3477616220        2.6953573614       33.7609507929  TIP3      1839            0.0000000000
     27837      2031  TIP3      H2            -10.8462139890        1.3684231390       33.2807919896  TIP3      1839            0.0000000000
     27838      2032  TIP3      OH2            -9.0355901111        5.9731269207       37.8047391469  TIP3      1840            0.0000000000
     27839      2032  TIP3      H1             -9.7330623202        5.7880415987       38.4692068120  TIP3      1840            0.0000000000
     27840      2032  TIP3      H2             -9.5886183732        5.9197886132       37.0015703944  TIP3      1840            0.0000000000
     27841      2033  TIP3      OH2            -6.4035752166        5.5531391533       36.7581092599  TIP3      1841            0.0000000000
     27842      2033  TIP3      H1             -7.3372683119        5.4301285273       36.9998155645  TIP3      1841            0.0000000000
     27843      2033  TIP3      H2             -6.0025704185        4.9326182119       37.4012181677  TIP3      1841            0.0000000000
     27844      2034  TIP3      OH2            -5.2826157826        3.7019414104       38.4133615300  TIP3      1842            0.0000000000
     27845      2034  TIP3      H1             -4.8441058582        2.8547804357       38.6281737452  TIP3      1842            0.0000000000
     27846      2034  TIP3      H2             -5.1309973844        4.2467048368       39.2191915136  TIP3      1842            0.0000000000
     27847      2035  TIP3      OH2           -14.9769145839        5.2073608142       37.7044029504  TIP3      1843            0.0000000000
     27848      2035  TIP3      H1            -15.0620561593        4.3711094713       37.2018001508  TIP3      1843            0.0000000000
     27849      2035  TIP3      H2            -15.0683943763        4.8717804657       38.6378253329  TIP3      1843            0.0000000000
     27850      2036  TIP3      OH2           -10.5182064538        1.2948125947       36.1949863516  TIP3      1844            0.0000000000
     27851      2036  TIP3      H1             -9.7421933513        0.7534648943       36.3991987019  TIP3      1844            0.0000000000
     27852      2036  TIP3      H2            -10.4337464125        1.2836364057       35.2142523514  TIP3      1844            0.0000000000
     27853      2037  TIP3      OH2           -10.3650003437        2.3144776948       39.1179466259  TIP3      1845            0.0000000000
     27854      2037  TIP3      H1            -10.4922465176        1.9524447074       38.2201527206  TIP3      1845            0.0000000000
     27855      2037  TIP3      H2            -10.4291465162        3.2647382763       38.9274147196  TIP3      1845            0.0000000000
     27856      2038  TIP3      OH2           -10.1521847234       20.3739711326       21.9332471717  TIP3      1846            0.0000000000
     27857      2038  TIP3      H1             -9.1817331592       20.3123612035       21.9799130735  TIP3      1846            0.0000000000
     27858      2038  TIP3      H2            -10.3394112997       20.1464709357       21.0134134767  TIP3      1846            0.0000000000
     27859      2039  TIP3      OH2           -18.1859744192       19.5678923660       26.3552123305  TIP3      1847            0.0000000000
     27860      2039  TIP3      H1            -18.6831335322       18.8258140885       25.9441252065  TIP3      1847            0.0000000000
     27861      2039  TIP3      H2            -17.7137651946       19.0952342991       27.0683573973  TIP3      1847            0.0000000000
     27862      2040  TIP3      OH2           -17.1075245055       17.7153741490       28.2910945070  TIP3      1848            0.0000000000
     27863      2040  TIP3      H1            -17.8676443274       17.2679931516       28.6981953751  TIP3      1848            0.0000000000
     27864      2040  TIP3      H2            -16.5004563170       17.7732310108       29.0555361071  TIP3      1848            0.0000000000
     27865      2041  TIP3      OH2             0.1677464010       18.3073014031       30.6007646892  TIP3      1849            0.0000000000
     27866      2041  TIP3      H1              0.4816281210       18.4978264657       31.4954831973  TIP3      1849            0.0000000000
     27867      2041  TIP3      H2              0.5094008727       19.0507689739       30.0855649345  TIP3      1849            0.0000000000
     27868      2042  TIP3      OH2            -0.0380575111       17.8469870882       33.8317695838  TIP3      1850            0.0000000000
     27869      2042  TIP3      H1             -0.4288146605       17.0773357933       33.3667071996  TIP3      1850            0.0000000000
     27870      2042  TIP3      H2              0.1434938678       17.4355110199       34.6968813335  TIP3      1850            0.0000000000
     27871      2043  TIP3      OH2            -1.1259609507       13.6975790301       38.8823479053  TIP3      1851            0.0000000000
     27872      2043  TIP3      H1             -2.0280725961       13.8234292837       39.2471883175  TIP3      1851            0.0000000000
     27873      2043  TIP3      H2             -0.7393051877       14.5781030176       39.0999671033  TIP3      1851            0.0000000000
     27874      2044  TIP3      OH2            -0.1505837439       11.9921248377       24.1202603873  TIP3      1852            0.0000000000
     27875      2044  TIP3      H1              0.6904612427       12.4791700665       24.2053500635  TIP3      1852            0.0000000000
     27876      2044  TIP3      H2             -0.1966023239       11.4923066040       24.9573705864  TIP3      1852            0.0000000000
     27877      2045  TIP3      OH2             0.1204354862       10.4334010589       26.3686630486  TIP3      1853            0.0000000000
     27878      2045  TIP3      H1             -0.6686347351        9.8400561933       26.3186530028  TIP3      1853            0.0000000000
     27879      2045  TIP3      H2              0.2980688431       10.4054581857       27.3206374198  TIP3      1853            0.0000000000
     27880      2046  TIP3      OH2             0.0103193482       12.9825886177       30.8177618201  TIP3      1854            0.0000000000
     27881      2046  TIP3      H1              0.6536062709       12.2524982566       30.6661197889  TIP3      1854            0.0000000000
     27882      2046  TIP3      H2              0.5081344617       13.7855227741       30.5758747714  TIP3      1854            0.0000000000
     27883      2047  TIP3      OH2            -1.5520188899       15.7204474482       33.1768702763  TIP3      1855            0.0000000000
     27884      2047  TIP3      H1             -2.3086787441       16.0863886006       33.6665404865  TIP3      1855            0.0000000000
     27885      2047  TIP3      H2             -1.9894335317       15.4135451402       32.3486550230  TIP3      1855            0.0000000000
     27886      2048  TIP3      OH2             0.3381417381        9.6833741689       22.7262551756  TIP3      1856            0.0000000000
     27887      2048  TIP3      H1             -0.3836129331        9.8883428046       22.1024428734  TIP3      1856            0.0000000000
     27888      2048  TIP3      H2              0.5349238890       10.5981985101       23.0232698980  TIP3      1856            0.0000000000
     27889      2049  TIP3      OH2            -1.6501938084        8.6181068606       26.9731223891  TIP3      1857            0.0000000000
     27890      2049  TIP3      H1             -2.1894632585        7.8814505163       26.6219613013  TIP3      1857            0.0000000000
     27891      2049  TIP3      H2             -2.0221592939        8.7174832578       27.8748198224  TIP3      1857            0.0000000000
     27892      2050  TIP3      OH2           -17.1520975650       11.1146861132       30.6948478416  TIP3      1858            0.0000000000
     27893      2050  TIP3      H1            -17.1782844425       10.7996562637       29.7624130613  TIP3      1858            0.0000000000
     27894      2050  TIP3      H2            -16.2229171090       10.8354439146       30.9078343349  TIP3      1858            0.0000000000
     27895      2051  TIP3      OH2            -0.8871856232       10.6865860249       36.4661375692  TIP3      1859            0.0000000000
     27896      2051  TIP3      H1             -0.3597166031        9.8740406737       36.2942308989  TIP3      1859            0.0000000000
     27897      2051  TIP3      H2             -0.2987790081       11.4026281315       36.1637734421  TIP3      1859            0.0000000000
     27898      2052  TIP3      OH2             0.3285479839        8.2590733021       36.6535193304  TIP3      1860            0.0000000000
     27899      2052  TIP3      H1             -0.6222773145        8.0108492468       36.5836170789  TIP3      1860            0.0000000000
     27900      2052  TIP3      H2              0.7780607065        7.3798903378       36.6899868322  TIP3      1860            0.0000000000
     27901      2053  TIP3      OH2            -1.9999560170        3.7472767559       20.2765252519  TIP3      1861            0.0000000000
     27902      2053  TIP3      H1             -1.4693193814        4.4057472229       19.7864922573  TIP3      1861            0.0000000000
     27903      2053  TIP3      H2             -2.8214390984        4.2348919779       20.4572732799  TIP3      1861            0.0000000000
     27904      2054  TIP3      OH2            -2.7128621300        6.1873137465       25.9001173821  TIP3      1862            0.0000000000
     27905      2054  TIP3      H1             -2.1764598534        5.4044381691       25.6626500247  TIP3      1862            0.0000000000
     27906      2054  TIP3      H2             -2.4257669207        6.8062956133       25.2074480303  TIP3      1862            0.0000000000
     27907      2055  TIP3      OH2            -1.5043097423        6.7310298114       30.3964296555  TIP3      1863            0.0000000000
     27908      2055  TIP3      H1             -0.5349998260        6.8281511105       30.5399548347  TIP3      1863            0.0000000000
     27909      2055  TIP3      H2             -1.8107840475        6.8136703656       31.3106760635  TIP3      1863            0.0000000000
     27910      2056  TIP3      OH2            -1.5810643084        7.6770973178       33.0218631956  TIP3      1864            0.0000000000
     27911      2056  TIP3      H1             -2.4097326470        7.9314008254       33.4721657325  TIP3      1864            0.0000000000
     27912      2056  TIP3      H2             -1.1663376760        8.5441270900       32.8175278664  TIP3      1864            0.0000000000
     27913      2057  TIP3      OH2           -17.1082997824        6.1988705306       36.5937773963  TIP3      1865            0.0000000000
     27914      2057  TIP3      H1            -16.2769264032        5.9577945588       37.0646324420  TIP3      1865            0.0000000000
     27915      2057  TIP3      H2            -17.6709880421        5.4292392448       36.8373197756  TIP3      1865            0.0000000000
     27916      2058  TIP3      OH2             0.4844634759        2.0235166455       38.3438022511  TIP3      1866            0.0000000000
     27917      2058  TIP3      H1              0.9638973065        1.3241901984       37.8579689273  TIP3      1866            0.0000000000
     27918      2058  TIP3      H2              0.4621628285        2.7357104638       37.6591151542  TIP3      1866            0.0000000000
     27919      2059  TIP3      OH2            -1.5917308883        3.5403738973       25.1835218804  TIP3      1867            0.0000000000
     27920      2059  TIP3      H1             -1.3267397948        3.2391678574       26.0771941855  TIP3      1867            0.0000000000
     27921      2059  TIP3      H2             -2.3507185836        2.9525084103       24.9703435786  TIP3      1867            0.0000000000
     27922      2060  TIP3      OH2           -16.0952502617        4.4120136809       30.2918726785  TIP3      1868            0.0000000000
     27923      2060  TIP3      H1            -15.6599470742        3.5481955355       30.1266445284  TIP3      1868            0.0000000000
     27924      2060  TIP3      H2            -15.3627490425        5.0517311013       30.2023144768  TIP3      1868            0.0000000000
     27925      2061  TIP3      OH2           -17.7348302179        7.4174549871       30.7533312028  TIP3      1869            0.0000000000
     27926      2061  TIP3      H1            -17.1354624347        6.9720200873       30.1319934758  TIP3      1869            0.0000000000
     27927      2061  TIP3      H2            -17.2398471644        8.2335128857       30.9004117222  TIP3      1869            0.0000000000
     27928      2062  TIP3      OH2            -0.0556819001        4.1230083109       36.8581902890  TIP3      1870            0.0000000000
     27929      2062  TIP3      H1             -0.7935598766        4.2110249211       37.4914459022  TIP3      1870            0.0000000000
     27930      2062  TIP3      H2             -0.5374436109        3.8122711693       36.0659784780  TIP3      1870            0.0000000000
     27931      2063  TIP3      OH2           -17.4701750099        3.9164200967       24.9709231649  TIP3      1871            0.0000000000
     27932      2063  TIP3      H1            -18.3110442436        3.5112400991       24.7435972162  TIP3      1871            0.0000000000
     27933      2063  TIP3      H2            -17.1537062811        4.2522687578       24.1094891912  TIP3      1871            0.0000000000
     27934      2064  TIP3      OH2            -2.6850748947       18.6070493213       26.9541437433  TIP3      1872            0.0000000000
     27935      2064  TIP3      H1             -2.1810980424       18.3411135890       26.1535589827  TIP3      1872            0.0000000000
     27936      2064  TIP3      H2             -2.0919377940       19.1935433276       27.4380760392  TIP3      1872            0.0000000000
     27937      2065  TIP3      OH2           -17.6645604501        2.3298532117       33.1721544610  TIP3      1873            0.0000000000
     27938      2065  TIP3      H1            -18.4148271884        2.0157444103       33.7111493200  TIP3      1873            0.0000000000
     27939      2065  TIP3      H2            -18.0629268360        2.9798261951       32.5786389247  TIP3      1873            0.0000000000
     27940      2066  TIP3      OH2           -15.4465410810       15.4702595951       37.0817968636  TIP3      1874            0.0000000000
     27941      2066  TIP3      H1            -16.3744313159       15.7054427321       36.9032758010  TIP3      1874            0.0000000000
     27942      2066  TIP3      H2            -15.4417118999       15.2359246688       38.0120831265  TIP3      1874            0.0000000000
     27943      2067  TIP3      OH2           -12.4863912427       16.9090422551       33.7405157643  TIP3      1875            0.0000000000
     27944      2067  TIP3      H1            -12.4562084282       17.8349824127       33.4171785402  TIP3      1875            0.0000000000
     27945      2067  TIP3      H2            -11.5286167875       16.7058258989       33.7035259195  TIP3      1875            0.0000000000
     27946      2068  TIP3      OH2            -8.3922380281       18.0762524862       36.3409010692  TIP3      1876            0.0000000000
     27947      2068  TIP3      H1             -8.2461081344       17.9141894796       37.2985628347  TIP3      1876            0.0000000000
     27948      2068  TIP3      H2             -7.5179237056       18.4387187991       36.0858283301  TIP3      1876            0.0000000000
     27949      2069  TIP3      OH2            -6.1529503453       19.6746872260       35.9222745567  TIP3      1877            0.0000000000
     27950      2069  TIP3      H1             -5.3266982757       19.2429241074       35.6611968271  TIP3      1877            0.0000000000
     27951      2069  TIP3      H2             -5.8890126899       20.1407947722       36.7455696478  TIP3      1877            0.0000000000
     27952      2070  TIP3      OH2            -0.9212788441        1.5782858420       34.8732700508  TIP3      1878            0.0000000000
     27953      2070  TIP3      H1             -1.7382792787        1.9523455254       34.5031175374  TIP3      1878            0.0000000000
     27954      2070  TIP3      H2             -0.8509426848        0.7077408369       34.4366797845  TIP3      1878            0.0000000000
     27955      2071  TIP3      OH2           -15.0623797680       19.9885211754       33.4725884342  TIP3      1879            0.0000000000
     27956      2071  TIP3      H1            -15.8773728815       20.4892922794       33.2424283085  TIP3      1879            0.0000000000
     27957      2071  TIP3      H2            -15.0334017192       20.1384355391       34.4315883585  TIP3      1879            0.0000000000
     27958      2072  TIP3      OH2           -12.7021814815       19.3842437944       32.3763168108  TIP3      1880            0.0000000000
     27959      2072  TIP3      H1            -13.6190540941       19.6350318623       32.6449525381  TIP3      1880            0.0000000000
     27960      2072  TIP3      H2            -12.4428242925       20.1575882520       31.8357727102  TIP3      1880            0.0000000000
     27961      2073  TIP3      OH2            -7.9978112931       18.9744756394       31.7240616451  TIP3      1881            0.0000000000
     27962      2073  TIP3      H1             -7.8270932544       19.5239051201       30.9382830894  TIP3      1881            0.0000000000
     27963      2073  TIP3      H2             -7.8327750143       19.6324057932       32.4362612747  TIP3      1881            0.0000000000
     27964      2074  TIP3      OH2            -5.9563580164       17.7266540725       33.1790105765  TIP3      1882            0.0000000000
     27965      2074  TIP3      H1             -6.5838235340       18.0853476267       32.5167920954  TIP3      1882            0.0000000000
     27966      2074  TIP3      H2             -5.2180843510       18.3448478199       33.0081819123  TIP3      1882            0.0000000000
     27967      2075  TIP3      OH2            -3.4194954218       19.4294495720       32.8300916557  TIP3      1883            0.0000000000
     27968      2075  TIP3      H1             -3.3961288264       20.3536766180       32.5139329424  TIP3      1883            0.0000000000
     27969      2075  TIP3      H2             -3.2106043728       18.9866319869       31.9742241921  TIP3      1883            0.0000000000
     27970      2076  TIP3      OH2           -15.5622872432       18.3473197771       30.5156928369  TIP3      1884            0.0000000000
     27971      2076  TIP3      H1            -15.8305214875       17.7516215190       31.2494451391  TIP3      1884            0.0000000000
     27972      2076  TIP3      H2            -14.6688229482       17.9949383381       30.2928473191  TIP3      1884            0.0000000000
     27973      2077  TIP3      OH2           -13.4273319006       17.2766032453       29.2013060297  TIP3      1885            0.0000000000
     27974      2077  TIP3      H1            -13.5769454318       16.3691830312       29.5262631868  TIP3      1885            0.0000000000
     27975      2077  TIP3      H2            -12.5224646567       17.4203281920       29.5588332428  TIP3      1885            0.0000000000
     27976      2078  TIP3      OH2           -11.0824203133       17.3717431245       30.4947131485  TIP3      1886            0.0000000000
     27977      2078  TIP3      H1            -10.5844681407       16.5454385503       30.3967455917  TIP3      1886            0.0000000000
     27978      2078  TIP3      H2            -10.9514672491       17.5739684863       31.4370712015  TIP3      1886            0.0000000000
     27979      2079  TIP3      OH2            -7.7499959135        3.1185668867       29.3465811670  TIP3      1887            0.0000000000
     27980      2079  TIP3      H1             -8.5974956708        2.9100509731       29.7716559727  TIP3      1887            0.0000000000
     27981      2079  TIP3      H2             -7.6104225033        2.3591735417       28.7664609258  TIP3      1887            0.0000000000
     27982      2080  TIP3      OH2            -2.2602426632        1.0185624385       28.8766497182  TIP3      1888            0.0000000000
     27983      2080  TIP3      H1             -1.5869639269        1.6771830324       28.5612187242  TIP3      1888            0.0000000000
     27984      2080  TIP3      H2             -3.0889384669        1.4978514593       28.6330903385  TIP3      1888            0.0000000000
     27985      2081  TIP3      OH2            -0.7366321127        2.7229282204       27.5685894954  TIP3      1889            0.0000000000
     27986      2081  TIP3      H1             -0.0456318762        2.1349064595       27.1809379088  TIP3      1889            0.0000000000
     27987      2081  TIP3      H2             -0.1725859342        3.5006539666       27.8047033783  TIP3      1889            0.0000000000
     27988      2082  TIP3      OH2           -15.1809666865        1.7696012968       27.1324507042  TIP3      1890            0.0000000000
     27989      2082  TIP3      H1            -16.0424710622        1.5220282727       26.7328716401  TIP3      1890            0.0000000000
     27990      2082  TIP3      H2            -14.6839797703        0.9235027618       27.0148414285  TIP3      1890            0.0000000000
     27991      2083  TIP3      OH2           -10.6811037702        1.4080992078       27.0638079087  TIP3      1891            0.0000000000
     27992      2083  TIP3      H1             -9.9598263669        1.7753559049       26.5465109156  TIP3      1891            0.0000000000
     27993      2083  TIP3      H2            -10.5061785798        1.7814117699       27.9472207842  TIP3      1891            0.0000000000
     27994      2084  TIP3      OH2            -4.8293918915        1.7632726172       28.3434748413  TIP3      1892            0.0000000000
     27995      2084  TIP3      H1             -5.1651117257        1.9754355021       27.4678243531  TIP3      1892            0.0000000000
     27996      2084  TIP3      H2             -5.4608893714        1.0695216715       28.6384376515  TIP3      1892            0.0000000000
     27997      2085  TIP3      OH2            -3.9636918782        1.9692706275       24.0449681409  TIP3      1893            0.0000000000
     27998      2085  TIP3      H1             -4.6336027138        2.4289140729       23.5298075878  TIP3      1893            0.0000000000
     27999      2085  TIP3      H2             -4.4661965993        1.1786530069       24.3343974121  TIP3      1893            0.0000000000
     28000      2086  TIP3      OH2           -16.0501324269       17.7753135960       23.7709474593  TIP3      1894            0.0000000000
     28001      2086  TIP3      H1            -16.2553699990       17.5348617129       22.8524974729  TIP3      1894            0.0000000000
     28002      2086  TIP3      H2            -16.1735381943       18.7494892040       23.6752071634  TIP3      1894            0.0000000000
     28003      2087  TIP3      OH2           -14.9289180774        3.0187771262       21.2950273255  TIP3      1895            0.0000000000
     28004      2087  TIP3      H1            -14.0145975005        2.9149296518       20.9930510858  TIP3      1895            0.0000000000
     28005      2087  TIP3      H2            -14.8154729732        3.8134009561       21.8421492814  TIP3      1895            0.0000000000
     28006      2088  TIP3      OH2            -9.6838930470        3.8902796538       23.7162037788  TIP3      1896            0.0000000000
     28007      2088  TIP3      H1             -9.1399723758        3.2418655376       24.1979239191  TIP3      1896            0.0000000000
     28008      2088  TIP3      H2             -9.2622825222        4.7192334040       24.0015600871  TIP3      1896            0.0000000000
     28009      2089  TIP3      OH2            -7.2870129412       19.2118417815       22.0189086909  TIP3      1897            0.0000000000
     28010      2089  TIP3      H1             -6.5654778712       19.8133110705       21.7707682130  TIP3      1897            0.0000000000
     28011      2089  TIP3      H2             -7.5099107020       18.8267971392       21.1558656670  TIP3      1897            0.0000000000
     28012      2090  TIP3      OH2            -1.1946700247       17.7275094340       24.8876144440  TIP3      1898            0.0000000000
     28013      2090  TIP3      H1             -1.1975079127       16.9516581494       24.3000697749  TIP3      1898            0.0000000000
     28014      2090  TIP3      H2             -1.4202283723       18.4283655739       24.2426466675  TIP3      1898            0.0000000000
     28015      2091  TIP3      OH2           -15.3979439474        2.5309115067       36.2818745563  TIP3      1899            0.0000000000
     28016      2091  TIP3      H1            -15.9409153612        1.7261522224       36.4145586565  TIP3      1899            0.0000000000
     28017      2091  TIP3      H2            -14.6456186789        2.3359527228       36.8839302007  TIP3      1899            0.0000000000
     28018      2092  TIP3      OH2           -13.4631990744        1.8636226561       38.1757497278  TIP3      1900            0.0000000000
     28019      2092  TIP3      H1            -12.6328717607        1.4291587612       37.9158597991  TIP3      1900            0.0000000000
     28020      2092  TIP3      H2            -13.8879579039        1.1569920591       38.7028468270  TIP3      1900            0.0000000000
     28021      2093  TIP3      OH2            -4.8989861927        0.9998432199       38.6705400898  TIP3      1901            0.0000000000
     28022      2093  TIP3      H1             -4.7456415599        0.6139202373       39.5565887348  TIP3      1901            0.0000000000
     28023      2093  TIP3      H2             -4.0256989741        0.8551204093       38.2396283854  TIP3      1901            0.0000000000
     28024      2094  TIP3      OH2            -1.5773793031       17.1876944408       36.7944079268  TIP3      1902            0.0000000000
     28025      2094  TIP3      H1             -2.2805563148       17.0660134220       36.1201582479  TIP3      1902            0.0000000000
     28026      2094  TIP3      H2             -1.9221056792       17.9944714389       37.2261179135  TIP3      1902            0.0000000000
     28027      2095  TIP3      OH2            13.1400434688       11.1201605799       26.7612760828  TIP3      1903            0.0000000000
     28028      2095  TIP3      H1             13.3523573099       11.9969036393       27.1439067588  TIP3      1903            0.0000000000
     28029      2095  TIP3      H2             12.2410068046       11.2942921090       26.4575476074  TIP3      1903            0.0000000000
     28030      2096  TIP3      OH2            12.0645593440        9.7660575413       30.0084766989  TIP3      1904            0.0000000000
     28031      2096  TIP3      H1             12.0914683680        9.4627213294       30.9438650024  TIP3      1904            0.0000000000
     28032      2096  TIP3      H2             11.2009497297        9.4402733796       29.6880826855  TIP3      1904            0.0000000000
     28033      2097  TIP3      OH2             4.1032622443        9.9855080416       31.5675102803  TIP3      1905            0.0000000000
     28034      2097  TIP3      H1              3.8977065153        9.1664444912       32.0665669868  TIP3      1905            0.0000000000
     28035      2097  TIP3      H2              4.8063514279       10.3444902008       32.1492014511  TIP3      1905            0.0000000000
     28036      2098  TIP3      OH2            15.0125597178       13.0916922038       29.0812436656  TIP3      1906            0.0000000000
     28037      2098  TIP3      H1             15.0481360742       12.3536491472       29.7125526115  TIP3      1906            0.0000000000
     28038      2098  TIP3      H2             15.2469591589       13.8557280022       29.6593807084  TIP3      1906            0.0000000000
     28039      2099  TIP3      OH2             4.9024727524       14.7687321143       29.7511620506  TIP3      1907            0.0000000000
     28040      2099  TIP3      H1              4.1700225175       14.1384738991       29.8074703443  TIP3      1907            0.0000000000
     28041      2099  TIP3      H2              5.4593499892       14.4302291079       30.4699758477  TIP3      1907            0.0000000000
     28042      2100  TIP3      OH2             1.8423870265        7.8005970147       25.6722016354  TIP3      1908            0.0000000000
     28043      2100  TIP3      H1              1.3999428217        8.6608088255       25.7369868225  TIP3      1908            0.0000000000
     28044      2100  TIP3      H2              1.0518070659        7.2371444352       25.6170564841  TIP3      1908            0.0000000000
     28045      2101  TIP3      OH2             2.7129268844       10.2863953463       28.2277598670  TIP3      1909            0.0000000000
     28046      2101  TIP3      H1              2.7596832122        9.3061352717       28.3366807054  TIP3      1909            0.0000000000
     28047      2101  TIP3      H2              2.6896770905       10.3824267360       27.2639381915  TIP3      1909            0.0000000000
     28048      2102  TIP3      OH2            12.3952587083       18.4303201518       28.3827454466  TIP3      1910            0.0000000000
     28049      2102  TIP3      H1             13.1541851316       17.9967815279       27.9214567413  TIP3      1910            0.0000000000
     28050      2102  TIP3      H2             12.3744081311       17.8614839597       29.1650155395  TIP3      1910            0.0000000000
     28051      2103  TIP3      OH2             9.8968289300       12.9903994391       31.0724662854  TIP3      1911            0.0000000000
     28052      2103  TIP3      H1             10.0266642891       12.8419073334       30.1261802923  TIP3      1911            0.0000000000
     28053      2103  TIP3      H2             10.8330058208       12.9763968584       31.3922588732  TIP3      1911            0.0000000000
     28054      2104  TIP3      OH2            18.4914720467        4.4622774337       30.7080386529  TIP3      1912            0.0000000000
     28055      2104  TIP3      H1             18.7457782259        4.8408893292       31.5697784892  TIP3      1912            0.0000000000
     28056      2104  TIP3      H2             19.3694034242        4.2994031178       30.3277011479  TIP3      1912            0.0000000000
     28057      2105  TIP3      OH2            13.8443263207        7.2161736692       31.2836929413  TIP3      1913            0.0000000000
     28058      2105  TIP3      H1             14.0767081026        6.3507678254       31.6506650767  TIP3      1913            0.0000000000
     28059      2105  TIP3      H2             13.8667968793        6.9996749332       30.3295098040  TIP3      1913            0.0000000000
     28060      2106  TIP3      OH2             6.5200890145        4.8355910297       27.9783380132  TIP3      1914            0.0000000000
     28061      2106  TIP3      H1              6.4890470477        5.7317630607       27.5759838597  TIP3      1914            0.0000000000
     28062      2106  TIP3      H2              6.0503335915        4.3324419618       27.2837192676  TIP3      1914            0.0000000000
     28063      2107  TIP3      OH2            14.0686625110        5.0741939297       26.7506736972  TIP3      1915            0.0000000000
     28064      2107  TIP3      H1             14.4995316890        4.8609638226       27.6041319022  TIP3      1915            0.0000000000
     28065      2107  TIP3      H2             14.4803540724        5.9379122754       26.5986915703  TIP3      1915            0.0000000000
     28066      2108  TIP3      OH2             2.8760946051        7.5674264414       28.8442613346  TIP3      1916            0.0000000000
     28067      2108  TIP3      H1              3.5007553758        7.0173279717       29.3386026305  TIP3      1916            0.0000000000
     28068      2108  TIP3      H2              3.1501654899        7.3050391383       27.9342108031  TIP3      1916            0.0000000000
     28069      2109  TIP3      OH2             7.9953829848        8.9333430863       28.4084830562  TIP3      1917            0.0000000000
     28070      2109  TIP3      H1              8.8861609734        8.5108139032       28.4636417748  TIP3      1917            0.0000000000
     28071      2109  TIP3      H2              7.4404557748        8.1758928123       28.1229526633  TIP3      1917            0.0000000000
     28072      2110  TIP3      OH2            18.8743305950        5.5807501804       33.4809147554  TIP3      1918            0.0000000000
     28073      2110  TIP3      H1             18.4673571723        6.4741885009       33.3911443943  TIP3      1918            0.0000000000
     28074      2110  TIP3      H2             19.2380211756        5.6725254317       34.3698616917  TIP3      1918            0.0000000000
     28075      2111  TIP3      OH2             5.5591409371        4.2401092929       32.3063321560  TIP3      1919            0.0000000000
     28076      2111  TIP3      H1              5.0653208160        4.6350737017       31.5543615976  TIP3      1919            0.0000000000
     28077      2111  TIP3      H2              4.9569774429        4.4274897953       33.0476598507  TIP3      1919            0.0000000000
     28078      2112  TIP3      OH2            12.3117597645       13.8026776913       25.8415127618  TIP3      1920            0.0000000000
     28079      2112  TIP3      H1             12.1089485643       13.8414383377       24.8872170561  TIP3      1920            0.0000000000
     28080      2112  TIP3      H2             12.2007094936       14.7482533647       26.0707073063  TIP3      1920            0.0000000000
     28081      2113  TIP3      OH2             7.6187728776       11.8258874899       32.2740057554  TIP3      1921            0.0000000000
     28082      2113  TIP3      H1              6.9777866713       12.5440641163       32.4558906265  TIP3      1921            0.0000000000
     28083      2113  TIP3      H2              8.4017337115       12.3514178995       31.9977287015  TIP3      1921            0.0000000000
     28084      2114  TIP3      OH2            15.8599098258        4.7469277786       28.8973732280  TIP3      1922            0.0000000000
     28085      2114  TIP3      H1             16.0354215875        3.9932426293       29.4741062751  TIP3      1922            0.0000000000
     28086      2114  TIP3      H2             16.7490048054        5.1506141337       28.8989896822  TIP3      1922            0.0000000000
     28087      2115  TIP3      OH2             4.9673404276        5.9628800450       30.2089898318  TIP3      1923            0.0000000000
     28088      2115  TIP3      H1              5.5459234929        6.6658769293       30.5862622930  TIP3      1923            0.0000000000
     28089      2115  TIP3      H2              5.5494342855        5.5844560068       29.5133481776  TIP3      1923            0.0000000000
     28090      2116  TIP3      OH2             6.1032798912       14.0451222973       33.0136903440  TIP3      1924            0.0000000000
     28091      2116  TIP3      H1              5.9618827249       15.0054132253       32.9257608380  TIP3      1924            0.0000000000
     28092      2116  TIP3      H2              5.4364555788       13.8068568400       33.7129377510  TIP3      1924            0.0000000000
     28093      2117  TIP3      OH2             2.4230648637       13.2948786894       24.1062620914  TIP3      1925            0.0000000000
     28094      2117  TIP3      H1              2.6409852012       13.8530550578       23.3376241381  TIP3      1925            0.0000000000
     28095      2117  TIP3      H2              2.2997600287       14.0153531619       24.7649734235  TIP3      1925            0.0000000000
     28096      2118  TIP3      OH2            15.5867435389       15.0847228553       30.6914847328  TIP3      1926            0.0000000000
     28097      2118  TIP3      H1             14.6769099706       15.4486815871       30.7595289021  TIP3      1926            0.0000000000
     28098      2118  TIP3      H2             16.0484174236       15.9358805982       30.4850110625  TIP3      1926            0.0000000000
     28099      2119  TIP3      OH2            15.9832994969        4.1288142538       32.3560673542  TIP3      1927            0.0000000000
     28100      2119  TIP3      H1             15.1235918208        4.2401927642       31.9020751663  TIP3      1927            0.0000000000
     28101      2119  TIP3      H2             16.5871339865        4.5045667618       31.6912826453  TIP3      1927            0.0000000000
     28102      2120  TIP3      OH2             8.8630024853        1.4663069671       29.8734332613  TIP3      1928            0.0000000000
     28103      2120  TIP3      H1              8.5301681445        0.5631325317       29.7372449128  TIP3      1928            0.0000000000
     28104      2120  TIP3      H2              7.9962982772        1.9116072565       30.0827375298  TIP3      1928            0.0000000000
     28105      2121  TIP3      OH2            14.4261166812       16.9392254197       27.4562292853  TIP3      1929            0.0000000000
     28106      2121  TIP3      H1             14.5178467308       16.2320531265       26.7860289910  TIP3      1929            0.0000000000
     28107      2121  TIP3      H2             15.2164046786       17.4968270947       27.2642310260  TIP3      1929            0.0000000000
     28108      2122  TIP3      OH2            15.3447041597       14.9168947238       25.7832093287  TIP3      1930            0.0000000000
     28109      2122  TIP3      H1             15.3055046414       14.0906107674       25.2561074508  TIP3      1930            0.0000000000
     28110      2122  TIP3      H2             15.1912146545       14.5453047858       26.6697467907  TIP3      1930            0.0000000000
     28111      2123  TIP3      OH2            16.7917245126       13.4832437711       34.6996474221  TIP3      1931            0.0000000000
     28112      2123  TIP3      H1             17.0500475348       12.8235065223       34.0107417997  TIP3      1931            0.0000000000
     28113      2123  TIP3      H2             16.8915231593       14.3110031945       34.1791670864  TIP3      1931            0.0000000000
     28114      2124  TIP3      OH2            18.9128791159       10.0964986936       32.6999685616  TIP3      1932            0.0000000000
     28115      2124  TIP3      H1             18.1952495518       10.7544362847       32.5304075112  TIP3      1932            0.0000000000
     28116      2124  TIP3      H2             19.5045236594       10.3048880669       31.9470822891  TIP3      1932            0.0000000000
     28117      2125  TIP3      OH2            14.9597901424        9.5745898071       24.7691423405  TIP3      1933            0.0000000000
     28118      2125  TIP3      H1             14.3845451492       10.0851518832       25.3730560450  TIP3      1933            0.0000000000
     28119      2125  TIP3      H2             15.6657370151        9.2855709332       25.3837670197  TIP3      1933            0.0000000000
     28120      2126  TIP3      OH2            14.9326929793        9.1594513255       34.3923702189  TIP3      1934            0.0000000000
     28121      2126  TIP3      H1             14.6468396856       10.0058409596       34.7709821206  TIP3      1934            0.0000000000
     28122      2126  TIP3      H2             14.2487345238        9.0523810775       33.7091342112  TIP3      1934            0.0000000000
     28123      2127  TIP3      OH2             6.9461062029       10.8982734755       26.9493547768  TIP3      1935            0.0000000000
     28124      2127  TIP3      H1              6.3973020942       10.4429359374       26.2666808614  TIP3      1935            0.0000000000
     28125      2127  TIP3      H2              7.4451383180       10.1444128133       27.3275838034  TIP3      1935            0.0000000000
     28126      2128  TIP3      OH2             7.9432263643       14.3590190077       29.9167946072  TIP3      1936            0.0000000000
     28127      2128  TIP3      H1              8.4500547577       14.8420538166       29.2522178985  TIP3      1936            0.0000000000
     28128      2128  TIP3      H2              8.6532975588       13.9131400020       30.4253944088  TIP3      1936            0.0000000000
     28129      2129  TIP3      OH2             6.8362648094        9.7280494337       30.7252505900  TIP3      1937            0.0000000000
     28130      2129  TIP3      H1              7.2280636483        9.7177312971       29.8257160594  TIP3      1937            0.0000000000
     28131      2129  TIP3      H2              7.2800302494       10.4889223827       31.1563562433  TIP3      1937            0.0000000000
     28132      2130  TIP3      OH2            13.1278420621       15.5865372492       31.5058015861  TIP3      1938            0.0000000000
     28133      2130  TIP3      H1             13.0979461537       16.1330467862       32.3112681065  TIP3      1938            0.0000000000
     28134      2130  TIP3      H2             13.0888821726       14.6868043332       31.8784059841  TIP3      1938            0.0000000000
     28135      2131  TIP3      OH2             7.7660873661       14.2572855521       35.1764651716  TIP3      1939            0.0000000000
     28136      2131  TIP3      H1              7.0266780816       14.7462262761       35.6014577959  TIP3      1939            0.0000000000
     28137      2131  TIP3      H2              7.4046586707       14.1337623704       34.2711458026  TIP3      1939            0.0000000000
     28138      2132  TIP3      OH2             4.7506098929       10.6031450476       34.2068448808  TIP3      1940            0.0000000000
     28139      2132  TIP3      H1              4.9578179516       11.1937843599       34.9528597163  TIP3      1940            0.0000000000
     28140      2132  TIP3      H2              4.0132218597       10.1355312551       34.6415756722  TIP3      1940            0.0000000000
     28141      2133  TIP3      OH2            11.6541238135       16.5249938758       26.3312897113  TIP3      1941            0.0000000000
     28142      2133  TIP3      H1             11.7668206412       16.6473315754       27.2854940034  TIP3      1941            0.0000000000
     28143      2133  TIP3      H2             11.1175438552       17.2952843607       26.1051527083  TIP3      1941            0.0000000000
     28144      2134  TIP3      OH2             6.0542620519       16.0124697392       36.4227425886  TIP3      1942            0.0000000000
     28145      2134  TIP3      H1              5.9668278105       16.5125387263       35.5852277468  TIP3      1942            0.0000000000
     28146      2134  TIP3      H2              5.1255717223       15.7219340067       36.5391258830  TIP3      1942            0.0000000000
     28147      2135  TIP3      OH2             5.3873050122        9.8650402823       24.8801283158  TIP3      1943            0.0000000000
     28148      2135  TIP3      H1              5.3038025670       10.6970770529       24.3695634038  TIP3      1943            0.0000000000
     28149      2135  TIP3      H2              4.9301508203        9.2418619472       24.3028517039  TIP3      1943            0.0000000000
     28150      2136  TIP3      OH2             1.9386135292       12.4556997002       33.8964785361  TIP3      1944            0.0000000000
     28151      2136  TIP3      H1              1.6466813731       12.2466038671       32.9927693172  TIP3      1944            0.0000000000
     28152      2136  TIP3      H2              2.0502815785       11.5395025928       34.2520408365  TIP3      1944            0.0000000000
     28153      2137  TIP3      OH2             1.7365187943       15.3366907172       30.2602450936  TIP3      1945            0.0000000000
     28154      2137  TIP3      H1              2.5984564939       15.2977250012       30.6832843678  TIP3      1945            0.0000000000
     28155      2137  TIP3      H2              1.4364403958       16.1622829782       30.6732845027  TIP3      1945            0.0000000000
     28156      2138  TIP3      OH2            19.5016863430       15.9882497286       36.3735916011  TIP3      1946            0.0000000000
     28157      2138  TIP3      H1             19.2933676820       15.0350850474       36.3595052902  TIP3      1946            0.0000000000
     28158      2138  TIP3      H2             18.6320939973       16.3295142046       36.7108071868  TIP3      1946            0.0000000000
     28159      2139  TIP3      OH2            10.3622575469       15.3800811208       35.3379018092  TIP3      1947            0.0000000000
     28160      2139  TIP3      H1             10.5325309603       16.1317251998       35.9356137817  TIP3      1947            0.0000000000
     28161      2139  TIP3      H2              9.4231984363       15.1599419200       35.4903885114  TIP3      1947            0.0000000000
     28162      2140  TIP3      OH2            11.3043652206       19.5183400061       24.3314987377  TIP3      1948            0.0000000000
     28163      2140  TIP3      H1             10.5781985498       19.6577378051       23.7020516310  TIP3      1948            0.0000000000
     28164      2140  TIP3      H2             11.1615584568       20.2483473619       24.9655439842  TIP3      1948            0.0000000000
     28165      2141  TIP3      OH2             4.5764622723       17.9363026150       26.5480119936  TIP3      1949            0.0000000000
     28166      2141  TIP3      H1              4.9259483303       17.9881399661       27.4702771778  TIP3      1949            0.0000000000
     28167      2141  TIP3      H2              3.6429290910       17.7591867014       26.7296537201  TIP3      1949            0.0000000000
     28168      2142  TIP3      OH2            13.8166612277       18.5617069102       24.7380998107  TIP3      1950            0.0000000000
     28169      2142  TIP3      H1             12.9248347120       18.8781349410       24.4672957702  TIP3      1950            0.0000000000
     28170      2142  TIP3      H2             13.5995728513       17.6931565886       25.0970329774  TIP3      1950            0.0000000000
     28171      2143  TIP3      OH2            16.1624405532        7.8732814004       36.4901579234  TIP3      1951            0.0000000000
     28172      2143  TIP3      H1             16.0373763602        8.6196181167       35.8750539742  TIP3      1951            0.0000000000
     28173      2143  TIP3      H2             15.5224758646        7.2748966577       36.0562561683  TIP3      1951            0.0000000000
     28174      2144  TIP3      OH2             4.0547926552       13.9201667543       34.7762170708  TIP3      1952            0.0000000000
     28175      2144  TIP3      H1              4.0954394040       13.4581356347       35.6434313443  TIP3      1952            0.0000000000
     28176      2144  TIP3      H2              3.2311534121       13.5570795991       34.3841075333  TIP3      1952            0.0000000000
     28177      2145  TIP3      OH2             6.5410205026        2.4926273496       30.5297553479  TIP3      1953            0.0000000000
     28178      2145  TIP3      H1              5.6253081029        2.5899213546       30.2067350302  TIP3      1953            0.0000000000
     28179      2145  TIP3      H2              6.4947166008        3.0381241669       31.3456185627  TIP3      1953            0.0000000000
     28180      2146  TIP3      OH2            11.6030391643        2.0262448996       33.6874467346  TIP3      1954            0.0000000000
     28181      2146  TIP3      H1             11.9981357081        1.6290173569       34.5018719793  TIP3      1954            0.0000000000
     28182      2146  TIP3      H2             10.6467863066        2.0317559863       33.9161993660  TIP3      1954            0.0000000000
     28183      2147  TIP3      OH2            14.2992029580        6.0978776251       35.2433736990  TIP3      1955            0.0000000000
     28184      2147  TIP3      H1             13.5847895664        5.6686649890       35.7861062301  TIP3      1955            0.0000000000
     28185      2147  TIP3      H2             13.7857719626        6.8076986716       34.8172849680  TIP3      1955            0.0000000000
     28186      2148  TIP3      OH2            10.8888564156        5.0593918391       21.5358765670  TIP3      1956            0.0000000000
     28187      2148  TIP3      H1             10.5245255368        4.6032536060       22.3164373899  TIP3      1956            0.0000000000
     28188      2148  TIP3      H2             10.6233857942        4.4662060033       20.8184291032  TIP3      1956            0.0000000000
     28189      2149  TIP3      OH2             6.8931703383        7.2374001644       31.7049637296  TIP3      1957            0.0000000000
     28190      2149  TIP3      H1              6.0895198693        7.2825888021       32.2552421822  TIP3      1957            0.0000000000
     28191      2149  TIP3      H2              6.8816407033        8.1396124652       31.3028936687  TIP3      1957            0.0000000000
     28192      2150  TIP3      OH2             6.5328976220        7.2010395142       26.8523414996  TIP3      1958            0.0000000000
     28193      2150  TIP3      H1              5.5761500118        7.2700253727       26.6796229477  TIP3      1958            0.0000000000
     28194      2150  TIP3      H2              6.8934981539        7.0333836887       25.9713437925  TIP3      1958            0.0000000000
     28195      2151  TIP3      OH2            12.0832446698        8.1918138192       25.7744324784  TIP3      1959            0.0000000000
     28196      2151  TIP3      H1             11.7802006797        8.9655942890       25.2869370535  TIP3      1959            0.0000000000
     28197      2151  TIP3      H2             12.8006665257        7.8607209289       25.2125112884  TIP3      1959            0.0000000000
     28198      2152  TIP3      OH2            11.0133653508        8.3950073701       37.0436668493  TIP3      1960            0.0000000000
     28199      2152  TIP3      H1             10.6257031774        7.5209765125       37.2490763640  TIP3      1960            0.0000000000
     28200      2152  TIP3      H2             11.8395216249        8.3327048669       37.5659430935  TIP3      1960            0.0000000000
     28201      2153  TIP3      OH2            13.5277229361        7.5901330188       28.3231245760  TIP3      1961            0.0000000000
     28202      2153  TIP3      H1             13.2183058495        8.4941793664       28.1336242489  TIP3      1961            0.0000000000
     28203      2153  TIP3      H2             13.0267262133        7.1285899128       27.6367802475  TIP3      1961            0.0000000000
     28204      2154  TIP3      OH2             4.2747942557        7.4322617037       32.8991682305  TIP3      1962            0.0000000000
     28205      2154  TIP3      H1              4.6737805707        7.8554891864       33.6785284188  TIP3      1962            0.0000000000
     28206      2154  TIP3      H2              3.8965433558        6.6150462369       33.2865098291  TIP3      1962            0.0000000000
     28207      2155  TIP3      OH2             6.8556701188        5.8034037618       20.4107344124  TIP3      1963            0.0000000000
     28208      2155  TIP3      H1              6.8840268261        5.0619711164       21.0402835187  TIP3      1963            0.0000000000
     28209      2155  TIP3      H2              7.2693700948        5.4098114596       19.6188937054  TIP3      1963            0.0000000000
     28210      2156  TIP3      OH2             1.1425324265        4.6835025382       27.7483150160  TIP3      1964            0.0000000000
     28211      2156  TIP3      H1              1.9000625136        4.5399706266       28.3356092288  TIP3      1964            0.0000000000
     28212      2156  TIP3      H2              1.5000228238        4.5294969045       26.8463648496  TIP3      1964            0.0000000000
     28213      2157  TIP3      OH2             1.5076794182        5.5798011807       22.8822028405  TIP3      1965            0.0000000000
     28214      2157  TIP3      H1              2.2645488081        5.4196485268       22.2917749686  TIP3      1965            0.0000000000
     28215      2157  TIP3      H2              1.3237706152        6.5262568009       22.7688401807  TIP3      1965            0.0000000000
     28216      2158  TIP3      OH2            12.3743860037        9.0605508423       32.6606297315  TIP3      1966            0.0000000000
     28217      2158  TIP3      H1             12.9316743764        8.3777281285       32.2187326661  TIP3      1966            0.0000000000
     28218      2158  TIP3      H2             11.7991228373        8.5332463668       33.2703834280  TIP3      1966            0.0000000000
     28219      2159  TIP3      OH2             9.3106763811        5.1614110177       27.7189992954  TIP3      1967            0.0000000000
     28220      2159  TIP3      H1              8.4001680538        4.9903397921       28.0307257726  TIP3      1967            0.0000000000
     28221      2159  TIP3      H2              9.8535960792        4.5741728918       28.2792680813  TIP3      1967            0.0000000000
     28222      2160  TIP3      OH2             3.9232667127        6.3814002963       26.6919300051  TIP3      1968            0.0000000000
     28223      2160  TIP3      H1              3.2656651060        6.7046653991       26.0264725613  TIP3      1968            0.0000000000
     28224      2160  TIP3      H2              4.1687302813        5.4893216679       26.3529197206  TIP3      1968            0.0000000000
     28225      2161  TIP3      OH2             7.4796949359        6.6037782184       24.0331214962  TIP3      1969            0.0000000000
     28226      2161  TIP3      H1              8.3880170128        6.5664874376       24.3941244349  TIP3      1969            0.0000000000
     28227      2161  TIP3      H2              7.4674568580        7.4668315999       23.5913691308  TIP3      1969            0.0000000000
     28228      2162  TIP3      OH2            13.5778293949        4.2795259577       31.0211338286  TIP3      1970            0.0000000000
     28229      2162  TIP3      H1             12.7719229869        3.9345532630       31.4400272673  TIP3      1970            0.0000000000
     28230      2162  TIP3      H2             13.5099759671        3.8817836061       30.1380048207  TIP3      1970            0.0000000000
     28231      2163  TIP3      OH2            16.3976246545       19.7907836046       37.6156760415  TIP3      1971            0.0000000000
     28232      2163  TIP3      H1             16.5876763225       20.1347359300       36.7182852036  TIP3      1971            0.0000000000
     28233      2163  TIP3      H2             17.2387408640       19.9233535640       38.0846147271  TIP3      1971            0.0000000000
     28234      2164  TIP3      OH2             4.4875346926       12.1299579313       36.8639960816  TIP3      1972            0.0000000000
     28235      2164  TIP3      H1              5.0563166275       12.3760826778       37.6302301341  TIP3      1972            0.0000000000
     28236      2164  TIP3      H2              3.5993258284       12.1536071725       37.2810414362  TIP3      1972            0.0000000000
     28237      2165  TIP3      OH2            10.2459307765        7.7394038170       29.1675934392  TIP3      1973            0.0000000000
     28238      2165  TIP3      H1             11.1108254898        7.3250650323       29.2587649110  TIP3      1973            0.0000000000
     28239      2165  TIP3      H2              9.8268403393        7.5515078236       30.0181718627  TIP3      1973            0.0000000000
     28240      2166  TIP3      OH2             4.9460710096        3.8389837570       25.9591442128  TIP3      1974            0.0000000000
     28241      2166  TIP3      H1              4.3027123502        3.2383759538       26.4013029793  TIP3      1974            0.0000000000
     28242      2166  TIP3      H2              5.0724480280        3.3749830989       25.1171497057  TIP3      1974            0.0000000000
     28243      2167  TIP3      OH2             9.2551383593        5.9318442903       31.9990747178  TIP3      1975            0.0000000000
     28244      2167  TIP3      H1              8.4490051543        6.4897876133       31.9296658754  TIP3      1975            0.0000000000
     28245      2167  TIP3      H2              9.8362094268        6.5058065909       32.5098363946  TIP3      1975            0.0000000000
     28246      2168  TIP3      OH2            17.1549855640       12.0401290286       32.5536794578  TIP3      1976            0.0000000000
     28247      2168  TIP3      H1             17.5235707697       12.5225008351       31.7704614680  TIP3      1976            0.0000000000
     28248      2168  TIP3      H2             16.2763469164       11.8189032840       32.2106850672  TIP3      1976            0.0000000000
     28249      2169  TIP3      OH2            10.8419835714       12.6959033558       34.9787167748  TIP3      1977            0.0000000000
     28250      2169  TIP3      H1             10.4788606097       12.4616296452       35.8401215915  TIP3      1977            0.0000000000
     28251      2169  TIP3      H2             10.6595340361       13.6577280079       34.9829332200  TIP3      1977            0.0000000000
     28252      2170  TIP3      OH2            13.7653114445        6.8909767420       23.6931394833  TIP3      1978            0.0000000000
     28253      2170  TIP3      H1             14.6258694699        6.8040184132       24.1428479326  TIP3      1978            0.0000000000
     28254      2170  TIP3      H2             13.8498469987        7.7435199319       23.2591540666  TIP3      1978            0.0000000000
     28255      2171  TIP3      OH2             4.6849702014       11.7072633193       29.4631860147  TIP3      1979            0.0000000000
     28256      2171  TIP3      H1              3.8571912578       11.3085665101       29.1127829711  TIP3      1979            0.0000000000
     28257      2171  TIP3      H2              4.9447658362       10.9719447945       30.0535106212  TIP3      1979            0.0000000000
     28258      2172  TIP3      OH2            11.5881359011       13.6292444128       23.0118818592  TIP3      1980            0.0000000000
     28259      2172  TIP3      H1             11.0437993364       14.3443121883       22.6464882730  TIP3      1980            0.0000000000
     28260      2172  TIP3      H2             10.9648852490       12.8861422162       23.0092806229  TIP3      1980            0.0000000000
     28261      2173  TIP3      OH2             1.7886045611        9.9279913683       34.8075698918  TIP3      1981            0.0000000000
     28262      2173  TIP3      H1              1.6209823684        9.3066681082       35.5534231999  TIP3      1981            0.0000000000
     28263      2173  TIP3      H2              1.1941243056        9.5736743736       34.1224776289  TIP3      1981            0.0000000000
     28264      2174  TIP3      OH2             8.5048872562        9.7950727729       36.4918732916  TIP3      1982            0.0000000000
     28265      2174  TIP3      H1              8.2532407613        8.9269538122       36.1416446923  TIP3      1982            0.0000000000
     28266      2174  TIP3      H2              9.4812842752        9.7192630065       36.4734733306  TIP3      1982            0.0000000000
     28267      2175  TIP3      OH2            13.7075408725       15.0674085950       35.0901443684  TIP3      1983            0.0000000000
     28268      2175  TIP3      H1             12.9499864599       15.3383704027       34.5568425755  TIP3      1983            0.0000000000
     28269      2175  TIP3      H2             13.4855197327       15.5974892262       35.8857368498  TIP3      1983            0.0000000000
     28270      2176  TIP3      OH2            18.5367171605        7.4287584274       23.6323155999  TIP3      1984            0.0000000000
     28271      2176  TIP3      H1             18.7828179385        6.6894878563       23.0481477936  TIP3      1984            0.0000000000
     28272      2176  TIP3      H2             19.0289955421        8.1736796724       23.2594944501  TIP3      1984            0.0000000000
     28273      2177  TIP3      OH2            19.1974799298       13.2289235195       35.8837219139  TIP3      1985            0.0000000000
     28274      2177  TIP3      H1             18.3785504054       13.4765319328       35.4006743128  TIP3      1985            0.0000000000
     28275      2177  TIP3      H2             19.7810595989       12.9930543246       35.1229981428  TIP3      1985            0.0000000000
     28276      2178  TIP3      OH2            17.1588304755       15.4856682883       23.8081064885  TIP3      1986            0.0000000000
     28277      2178  TIP3      H1             16.5069374172       15.3420261599       24.5341819757  TIP3      1986            0.0000000000
     28278      2178  TIP3      H2             16.6794180284       15.1346651782       23.0401029861  TIP3      1986            0.0000000000
     28279      2179  TIP3      OH2            14.6621597591       10.8374984269       30.7391188659  TIP3      1987            0.0000000000
     28280      2179  TIP3      H1             13.7457795741       10.5664102561       30.5497195322  TIP3      1987            0.0000000000
     28281      2179  TIP3      H2             15.1588740947       10.2663453679       30.1243712949  TIP3      1987            0.0000000000
     28282      2180  TIP3      OH2             7.1402126460       15.6600145243       26.2684416437  TIP3      1988            0.0000000000
     28283      2180  TIP3      H1              7.7653384265       16.3283342477       25.9358447946  TIP3      1988            0.0000000000
     28284      2180  TIP3      H2              6.3199854976       16.0495511541       25.9310743628  TIP3      1988            0.0000000000
     28285      2181  TIP3      OH2             8.9276849299       13.2677700629       27.2281841206  TIP3      1989            0.0000000000
     28286      2181  TIP3      H1              8.8908776441       13.8152003791       26.4292561600  TIP3      1989            0.0000000000
     28287      2181  TIP3      H2              8.8807665605       12.3631308215       26.8680646142  TIP3      1989            0.0000000000
     28288      2182  TIP3      OH2             8.9789213294       17.2817988866       33.3562078698  TIP3      1990            0.0000000000
     28289      2182  TIP3      H1              9.6972784759       17.8427811615       33.0122089511  TIP3      1990            0.0000000000
     28290      2182  TIP3      H2              9.4510228737       16.8242850930       34.0742103359  TIP3      1990            0.0000000000
     28291      2183  TIP3      OH2             7.0789085358       18.4286021083       25.5819413747  TIP3      1991            0.0000000000
     28292      2183  TIP3      H1              6.1849991242       18.3985646481       25.9875516287  TIP3      1991            0.0000000000
     28293      2183  TIP3      H2              7.4294679947       19.2511103884       25.9812070763  TIP3      1991            0.0000000000
     28294      2184  TIP3      OH2            12.1941460844       12.9973339385       32.4583962122  TIP3      1992            0.0000000000
     28295      2184  TIP3      H1             11.8061030990       12.7682388858       33.3362431095  TIP3      1992            0.0000000000
     28296      2184  TIP3      H2             12.9210897843       12.3591579689       32.3895832317  TIP3      1992            0.0000000000
     28297      2185  TIP3      OH2            14.7317820956       14.4352495738       22.0528782431  TIP3      1993            0.0000000000
     28298      2185  TIP3      H1             15.0399449579       13.7760815748       22.7039957542  TIP3      1993            0.0000000000
     28299      2185  TIP3      H2             13.8420331915       14.1051259376       21.8721168629  TIP3      1993            0.0000000000
     28300      2186  TIP3      OH2            15.5690847454       18.1401605347       34.9875949867  TIP3      1994            0.0000000000
     28301      2186  TIP3      H1             14.8463693561       17.8385249365       34.4142655179  TIP3      1994            0.0000000000
     28302      2186  TIP3      H2             16.1433707420       18.6436536161       34.3590131641  TIP3      1994            0.0000000000
     28303      2187  TIP3      OH2             3.8378185794        5.0662544145       34.4242745399  TIP3      1995            0.0000000000
     28304      2187  TIP3      H1              3.1331697714        5.4152327017       35.0106028896  TIP3      1995            0.0000000000
     28305      2187  TIP3      H2              3.7702771951        4.1216197069       34.6384557407  TIP3      1995            0.0000000000
     28306      2188  TIP3      OH2            15.5809251096       12.6386418174       23.9487956250  TIP3      1996            0.0000000000
     28307      2188  TIP3      H1             15.4363758478       11.6807178176       24.0478708236  TIP3      1996            0.0000000000
     28308      2188  TIP3      H2             16.5672432853       12.6741180530       23.9271695711  TIP3      1996            0.0000000000
     28309      2189  TIP3      OH2             3.0346363551       16.6927075673       32.4562229955  TIP3      1997            0.0000000000
     28310      2189  TIP3      H1              3.7674578018       16.1503692089       32.7998548994  TIP3      1997            0.0000000000
     28311      2189  TIP3      H2              2.7197984536       17.1588141056       33.2449948325  TIP3      1997            0.0000000000
     28312      2190  TIP3      OH2             8.0287550838       14.7377953955       22.5394022849  TIP3      1998            0.0000000000
     28313      2190  TIP3      H1              7.2595392192       14.5652722935       23.0812251628  TIP3      1998            0.0000000000
     28314      2190  TIP3      H2              8.2546173937       15.6678787020       22.7721265411  TIP3      1998            0.0000000000
     28315      2191  TIP3      OH2             4.8598616093       12.3178101916       23.0906240387  TIP3      1999            0.0000000000
     28316      2191  TIP3      H1              3.9506138441       12.4339823085       23.4221262078  TIP3      1999            0.0000000000
     28317      2191  TIP3      H2              4.8308135784       12.8922307854       22.2997205101  TIP3      1999            0.0000000000
     28318      2192  TIP3      OH2            12.2017925682        4.8329766909       33.6478900567  TIP3      2000            0.0000000000
     28319      2192  TIP3      H1             13.1632764061        4.8066231747       33.6878092162  TIP3      2000            0.0000000000
     28320      2192  TIP3      H2             11.9576333553        3.9119715582       33.8672563768  TIP3      2000            0.0000000000
     28321      2193  TIP3      OH2            12.9535989624        4.1073937794       24.4946882281  TIP3      2001            0.0000000000
     28322      2193  TIP3      H1             13.0357783865        5.0514308947       24.2712978822  TIP3      2001            0.0000000000
     28323      2193  TIP3      H2             13.4175771054        4.1074826391       25.3539129940  TIP3      2001            0.0000000000
     28324      2194  TIP3      OH2            10.0649804441        6.1636323777       25.3538206524  TIP3      2002            0.0000000000
     28325      2194  TIP3      H1             10.7000466368        6.8166523195       25.7124945907  TIP3      2002            0.0000000000
     28326      2194  TIP3      H2              9.6719492568        5.8111599027       26.1856111689  TIP3      2002            0.0000000000
     28327      2195  TIP3      OH2            11.1430204821        7.2764999522       34.3111102271  TIP3      2003            0.0000000000
     28328      2195  TIP3      H1             11.1452108238        7.4679036772       35.2732493541  TIP3      2003            0.0000000000
     28329      2195  TIP3      H2             11.4224970508        6.3309699603       34.2522290599  TIP3      2003            0.0000000000
     28330      2196  TIP3      OH2            10.8434364807        2.7279806461       25.9240700086  TIP3      2004            0.0000000000
     28331      2196  TIP3      H1             10.5783838697        3.2510887137       26.7047510399  TIP3      2004            0.0000000000
     28332      2196  TIP3      H2             11.5128832175        3.3331991053       25.5296596973  TIP3      2004            0.0000000000
     28333      2197  TIP3      OH2             8.1192406854       17.3775027123       23.3283271632  TIP3      2005            0.0000000000
     28334      2197  TIP3      H1              8.2588477851       18.2003174572       22.8162017501  TIP3      2005            0.0000000000
     28335      2197  TIP3      H2              7.6680542915       17.7550775771       24.1133081801  TIP3      2005            0.0000000000
     28336      2198  TIP3      OH2             6.6120328107        4.1499246895       22.7036574829  TIP3      2006            0.0000000000
     28337      2198  TIP3      H1              6.4052058791        4.9460819139       23.2290698231  TIP3      2006            0.0000000000
     28338      2198  TIP3      H2              7.4709456235        3.9042721035       23.0955525245  TIP3      2006            0.0000000000
     28339      2199  TIP3      OH2            16.7969226048        4.6499648381       35.1452879376  TIP3      2007            0.0000000000
     28340      2199  TIP3      H1             15.8493356292        4.8726684177       35.1274678729  TIP3      2007            0.0000000000
     28341      2199  TIP3      H2             17.0425532845        4.6889795005       34.2014804672  TIP3      2007            0.0000000000
     28342      2200  TIP3      OH2            15.9898821266        8.9395715013       28.8741784343  TIP3      2008            0.0000000000
     28343      2200  TIP3      H1             15.1807998669        8.3978464270       28.9433589166  TIP3      2008            0.0000000000
     28344      2200  TIP3      H2             16.5481435470        8.4822748873       29.5470188064  TIP3      2008            0.0000000000
     28345      2201  TIP3      OH2            16.5229084454       17.5305809201       30.5819870846  TIP3      2009            0.0000000000
     28346      2201  TIP3      H1             16.6541711706       18.1845185614       29.8721521480  TIP3      2009            0.0000000000
     28347      2201  TIP3      H2             16.9841113992       17.9970924095       31.2982763443  TIP3      2009            0.0000000000
     28348      2202  TIP3      OH2             3.9079792077        2.0118439962       30.0440175349  TIP3      2010            0.0000000000
     28349      2202  TIP3      H1              3.9202183825        1.8877237608       29.0679671153  TIP3      2010            0.0000000000
     28350      2202  TIP3      H2              3.6975577148        1.0993732387       30.3361883716  TIP3      2010            0.0000000000
     28351      2203  TIP3      OH2             2.7933554602       15.6242103445       25.3432880638  TIP3      2011            0.0000000000
     28352      2203  TIP3      H1              2.0653170890       16.1472169232       25.7012864352  TIP3      2011            0.0000000000
     28353      2203  TIP3      H2              3.2800019981       16.2826396613       24.8300470037  TIP3      2011            0.0000000000
     28354      2204  TIP3      OH2             1.9717062208       18.9443511703       37.2354421927  TIP3      2012            0.0000000000
     28355      2204  TIP3      H1              2.6694511005       18.8459849399       37.9272892505  TIP3      2012            0.0000000000
     28356      2204  TIP3      H2              1.6175247978       18.0431781980       37.2415050855  TIP3      2012            0.0000000000
     28357      2205  TIP3      OH2             6.9995084003       17.1289839241       39.0227606500  TIP3      2013            0.0000000000
     28358      2205  TIP3      H1              7.9410309773       16.9047408397       39.0442886869  TIP3      2013            0.0000000000
     28359      2205  TIP3      H2              6.6829619585       16.6075831143       38.2636347842  TIP3      2013            0.0000000000
     28360      2206  TIP3      OH2            13.0372208048       16.2225493867       37.4559714522  TIP3      2014            0.0000000000
     28361      2206  TIP3      H1             12.8278403516       15.3097245166       37.7543534660  TIP3      2014            0.0000000000
     28362      2206  TIP3      H2             13.9315595351       16.3128101241       37.8487624670  TIP3      2014            0.0000000000
     28363      2207  TIP3      OH2             1.9681326478       12.3280203241       37.9762854007  TIP3      2015            0.0000000000
     28364      2207  TIP3      H1              1.4912813031       11.4831260204       38.0178143524  TIP3      2015            0.0000000000
     28365      2207  TIP3      H2              1.5164906629       12.7728765374       37.2186901543  TIP3      2015            0.0000000000
     28366      2208  TIP3      OH2             6.7175861468       12.6557728668       19.9604164958  TIP3      2016            0.0000000000
     28367      2208  TIP3      H1              6.6601181820       12.7319836710       20.9193545978  TIP3      2016            0.0000000000
     28368      2208  TIP3      H2              7.5411995377       13.1299187668       19.8030332117  TIP3      2016            0.0000000000
     28369      2209  TIP3      OH2             8.5865656256       12.4012190852       37.0471810756  TIP3      2017            0.0000000000
     28370      2209  TIP3      H1              8.3067317711       13.0028308752       36.3180695570  TIP3      2017            0.0000000000
     28371      2209  TIP3      H2              8.4608650696       11.4981942785       36.6650567627  TIP3      2017            0.0000000000
     28372      2210  TIP3      OH2            11.4684563572       13.2608422669       19.9997666549  TIP3      2018            0.0000000000
     28373      2210  TIP3      H1             11.3373730599       14.1697167780       20.3122947098  TIP3      2018            0.0000000000
     28374      2210  TIP3      H2             11.0935505442       12.7259538599       20.7200265452  TIP3      2018            0.0000000000
     28375      2211  TIP3      OH2            14.3641038655       12.2604946900       34.9896355921  TIP3      2019            0.0000000000
     28376      2211  TIP3      H1             15.1357022333       12.8622914626       34.8587120409  TIP3      2019            0.0000000000
     28377      2211  TIP3      H2             13.7139161607       12.9634314337       35.1755250493  TIP3      2019            0.0000000000
     28378      2212  TIP3      OH2             3.4398382753        9.3400877676       37.4923461744  TIP3      2020            0.0000000000
     28379      2212  TIP3      H1              4.2283513598        8.8750794839       37.7808772237  TIP3      2020            0.0000000000
     28380      2212  TIP3      H2              3.4588594547       10.1023176164       38.1021136837  TIP3      2020            0.0000000000
     28381      2213  TIP3      OH2             6.6158021605        8.5915896105       34.3108281315  TIP3      2021            0.0000000000
     28382      2213  TIP3      H1              6.0920104663        9.4210670019       34.3173726555  TIP3      2021            0.0000000000
     28383      2213  TIP3      H2              7.3937604378        8.8909325971       33.8131307156  TIP3      2021            0.0000000000
     28384      2214  TIP3      OH2            12.2357771581       11.3754377407       38.2347621023  TIP3      2022            0.0000000000
     28385      2214  TIP3      H1             12.6356153818       10.8447290016       37.5226950276  TIP3      2022            0.0000000000
     28386      2214  TIP3      H2             11.9109155463       10.6936424503       38.8517805610  TIP3      2022            0.0000000000
     28387      2215  TIP3      OH2             8.0055096969        6.3385624534       35.5147685536  TIP3      2023            0.0000000000
     28388      2215  TIP3      H1              7.9314961599        5.6339339992       34.8336863241  TIP3      2023            0.0000000000
     28389      2215  TIP3      H2              7.8047928224        7.1373421935       34.9838548183  TIP3      2023            0.0000000000
     28390      2216  TIP3      OH2             7.9322046946        4.2975026062       33.5219930690  TIP3      2024            0.0000000000
     28391      2216  TIP3      H1              8.5255262914        4.7133461675       32.8589841260  TIP3      2024            0.0000000000
     28392      2216  TIP3      H2              7.0604132805        4.4365761225       33.0888825336  TIP3      2024            0.0000000000
     28393      2217  TIP3      OH2             9.0728640548        9.9481898549       33.3705445533  TIP3      2025            0.0000000000
     28394      2217  TIP3      H1              9.8815265417       10.4612984784       33.2234274927  TIP3      2025            0.0000000000
     28395      2217  TIP3      H2              8.4062449196       10.6194679470       33.0957710312  TIP3      2025            0.0000000000
     28396      2218  TIP3      OH2            13.0946739494        7.8515862605       38.7599527900  TIP3      2026            0.0000000000
     28397      2218  TIP3      H1             13.2283717277        7.0241987300       39.2803532156  TIP3      2026            0.0000000000
     28398      2218  TIP3      H2             13.8906550345        7.8785071908       38.2052102550  TIP3      2026            0.0000000000
     28399      2219  TIP3      OH2            15.0895143161       10.7572339778       37.1943499565  TIP3      2027            0.0000000000
     28400      2219  TIP3      H1             14.6624560448       11.3039832785       36.5006688755  TIP3      2027            0.0000000000
     28401      2219  TIP3      H2             15.9859311722       10.6869824307       36.8225866111  TIP3      2027            0.0000000000
     28402      2220  TIP3      OH2             6.1382482093        6.9454331755       37.6512334843  TIP3      2028            0.0000000000
     28403      2220  TIP3      H1              5.3159230957        6.4281150136       37.4530027649  TIP3      2028            0.0000000000
     28404      2220  TIP3      H2              6.6691067746        6.7931773158       36.8448375238  TIP3      2028            0.0000000000
     28405      2221  TIP3      OH2             8.7853413270        1.7833755414       33.5583280575  TIP3      2029            0.0000000000
     28406      2221  TIP3      H1              8.5381041177        2.7326187485       33.6297197380  TIP3      2029            0.0000000000
     28407      2221  TIP3      H2              7.9425271909        1.4036889518       33.2836212210  TIP3      2029            0.0000000000
     28408      2222  TIP3      OH2             9.8376930219        5.9008088423       37.7998082144  TIP3      2030            0.0000000000
     28409      2222  TIP3      H1              9.1287105397        5.7748241273       38.4666791332  TIP3      2030            0.0000000000
     28410      2222  TIP3      H2              9.3135981845        5.8395664932       36.9771420907  TIP3      2030            0.0000000000
     28411      2223  TIP3      OH2            12.2980105689        5.4621320761       36.8077240853  TIP3      2031            0.0000000000
     28412      2223  TIP3      H1             11.3707405802        5.4769867315       37.1200180070  TIP3      2031            0.0000000000
     28413      2223  TIP3      H2             12.6602916562        4.8378137699       37.4775145302  TIP3      2031            0.0000000000
     28414      2224  TIP3      OH2            13.3498336588        3.5422138229       38.4116922376  TIP3      2032            0.0000000000
     28415      2224  TIP3      H1             13.5359064348        2.6048832823       38.6342774991  TIP3      2032            0.0000000000
     28416      2224  TIP3      H2             13.6276023791        4.0617079593       39.1951653218  TIP3      2032            0.0000000000
     28417      2225  TIP3      OH2             3.9958253233        5.2398284562       37.7233980291  TIP3      2033            0.0000000000
     28418      2225  TIP3      H1              3.9645970685        4.4412774102       37.1682570457  TIP3      2033            0.0000000000
     28419      2225  TIP3      H2              3.8350415742        4.8619220503       38.6309023325  TIP3      2033            0.0000000000
     28420      2226  TIP3      OH2             8.3061162708        1.4178299905       36.1484144116  TIP3      2034            0.0000000000
     28421      2226  TIP3      H1              9.1293589741        0.9568515858       36.3606850471  TIP3      2034            0.0000000000
     28422      2226  TIP3      H2              8.3798210489        1.4067542284       35.1659540843  TIP3      2034            0.0000000000
     28423      2227  TIP3      OH2             8.5117245968        2.3645188144       39.0941150287  TIP3      2035            0.0000000000
     28424      2227  TIP3      H1              8.3332055983        1.9999526791       38.2068131794  TIP3      2035            0.0000000000
     28425      2227  TIP3      H2              8.4819382769        3.3225009933       38.8881885676  TIP3      2035            0.0000000000
     28426      2228  TIP3      OH2             8.4960511402       19.9872122243       22.3549074930  TIP3      2036            0.0000000000
     28427      2228  TIP3      H1              8.9014480704       19.9966967508       21.4776211600  TIP3      2036            0.0000000000
     28428      2228  TIP3      H2              7.6383690827       20.4099860224       22.1679247607  TIP3      2036            0.0000000000
     28429      2229  TIP3      OH2             0.5425149913       19.4893782897       26.0965084375  TIP3      2037            0.0000000000
     28430      2229  TIP3      H1              0.0188538759       18.7197524840       25.7829248798  TIP3      2037            0.0000000000
     28431      2229  TIP3      H2              1.1524283091       19.0792383158       26.7385770308  TIP3      2037            0.0000000000
     28432      2230  TIP3      OH2             1.8219942743       17.7099634806       28.1323890592  TIP3      2038            0.0000000000
     28433      2230  TIP3      H1              1.3376154269       16.9756169209       28.5545208856  TIP3      2038            0.0000000000
     28434      2230  TIP3      H2              2.3239594262       18.0925657803       28.8920086466  TIP3      2038            0.0000000000
     28435      2231  TIP3      OH2            19.6258169459       18.4353707594       30.6570437212  TIP3      2039            0.0000000000
     28436      2231  TIP3      H1             18.9709156622       18.5056818425       31.3862503917  TIP3      2039            0.0000000000
     28437      2231  TIP3      H2             20.2152040388       19.1671342155       30.8757457612  TIP3      2039            0.0000000000
     28438      2232  TIP3      OH2            19.9509322335       17.2599098728       34.0265821010  TIP3      2040            0.0000000000
     28439      2232  TIP3      H1             19.0422667155       17.1707387799       33.6808190392  TIP3      2040            0.0000000000
     28440      2232  TIP3      H2             19.8555829628       16.9543521071       34.9526023715  TIP3      2040            0.0000000000
     28441      2233  TIP3      OH2            17.4558246608       13.7791631716       38.8655370148  TIP3      2041            0.0000000000
     28442      2233  TIP3      H1             16.6553970025       13.8360986273       39.4424763035  TIP3      2041            0.0000000000
     28443      2233  TIP3      H2             17.7900776310       14.7015082131       38.9617587910  TIP3      2041            0.0000000000
     28444      2234  TIP3      OH2            18.1562108793       11.9441493964       24.1015366360  TIP3      2042            0.0000000000
     28445      2234  TIP3      H1             18.9873518850       12.1324869611       23.6534480737  TIP3      2042            0.0000000000
     28446      2234  TIP3      H2             18.4220168514       11.3930986020       24.8659367808  TIP3      2042            0.0000000000
     28447      2235  TIP3      OH2            19.0852795918       10.3289847482       26.1475313715  TIP3      2043            0.0000000000
     28448      2235  TIP3      H1             18.2691425339        9.8513429602       26.4046262023  TIP3      2043            0.0000000000
     28449      2235  TIP3      H2             19.5820119250       10.3634501958       26.9839284512  TIP3      2043            0.0000000000
     28450      2236  TIP3      OH2            18.4378900234       12.9195306929       30.4558249774  TIP3      2044            0.0000000000
     28451      2236  TIP3      H1             19.1232961486       12.2199822389       30.4071254408  TIP3      2044            0.0000000000
     28452      2236  TIP3      H2             18.9628813196       13.7220281051       30.2638800141  TIP3      2044            0.0000000000
     28453      2237  TIP3      OH2            17.2926406016       15.8208892181       33.2381072760  TIP3      2045            0.0000000000
     28454      2237  TIP3      H1             16.9511260653       16.7199297035       33.3604200427  TIP3      2045            0.0000000000
     28455      2237  TIP3      H2             16.8306397362       15.5347788741       32.4280627974  TIP3      2045            0.0000000000
     28456      2238  TIP3      OH2            16.9841272697        8.5511748300       26.4032335832  TIP3      2046            0.0000000000
     28457      2238  TIP3      H1             16.6564752840        7.6413782064       26.2778512169  TIP3      2046            0.0000000000
     28458      2238  TIP3      H2             16.6894322524        8.7178848034       27.3368519859  TIP3      2046            0.0000000000
     28459      2239  TIP3      OH2             1.8770656548       11.0084814520       30.7419906864  TIP3      2047            0.0000000000
     28460      2239  TIP3      H1              1.9513791617       10.7232125871       29.8040342145  TIP3      2047            0.0000000000
     28461      2239  TIP3      H2              2.7653337641       10.7009793649       31.0538337897  TIP3      2047            0.0000000000
     28462      2240  TIP3      OH2            17.8864690277       10.7960676331       36.2919293261  TIP3      2048            0.0000000000
     28463      2240  TIP3      H1             18.8283008209       10.6418882730       36.0986254278  TIP3      2048            0.0000000000
     28464      2240  TIP3      H2             17.8752565288       11.7662447697       36.1385417715  TIP3      2048            0.0000000000
     28465      2241  TIP3      OH2            18.9903475712        8.4876577401       37.5025663906  TIP3      2049            0.0000000000
     28466      2241  TIP3      H1             18.3768726554        8.9101716560       36.8700363607  TIP3      2049            0.0000000000
     28467      2241  TIP3      H2             19.8314580206        8.3722353964       37.0358096412  TIP3      2049            0.0000000000
     28468      2242  TIP3      OH2            16.1936147899        6.3657013215       25.0908830737  TIP3      2050            0.0000000000
     28469      2242  TIP3      H1             16.5399044075        5.4575557164       25.2580205757  TIP3      2050            0.0000000000
     28470      2242  TIP3      H2             17.0139164213        6.7510441657       24.7207370702  TIP3      2050            0.0000000000
     28471      2243  TIP3      OH2            17.2849094344        7.0965862200       30.3921396344  TIP3      2051            0.0000000000
     28472      2243  TIP3      H1             18.2272343116        7.3294714357       30.5931231971  TIP3      2051            0.0000000000
     28473      2243  TIP3      H2             17.0468109075        6.6025370572       31.1827364463  TIP3      2051            0.0000000000
     28474      2244  TIP3      OH2            17.5000185821        7.8864569147       33.7442893140  TIP3      2052            0.0000000000
     28475      2244  TIP3      H1             16.5334008176        8.0038769708       33.7742267896  TIP3      2052            0.0000000000
     28476      2244  TIP3      H2             17.7887582728        8.7916066004       33.5019959422  TIP3      2052            0.0000000000
     28477      2245  TIP3      OH2             1.7665851156        6.0450324945       36.6498919405  TIP3      2053            0.0000000000
     28478      2245  TIP3      H1              2.5338043783        5.8007764321       37.2162308147  TIP3      2053            0.0000000000
     28479      2245  TIP3      H2              1.1430338037        5.3151640882       36.8529872375  TIP3      2053            0.0000000000
     28480      2246  TIP3      OH2            19.6150570741        1.7560500735       38.4458835934  TIP3      2054            0.0000000000
     28481      2246  TIP3      H1             20.0462400557        0.9845991629       38.0193171114  TIP3      2054            0.0000000000
     28482      2246  TIP3      H2             19.6266035597        2.3787182165       37.6871720070  TIP3      2054            0.0000000000
     28483      2247  TIP3      OH2            17.3812761177        4.0444913301       25.0755115996  TIP3      2055            0.0000000000
     28484      2247  TIP3      H1             17.5660776511        3.6748001563       25.9680990153  TIP3      2055            0.0000000000
     28485      2247  TIP3      H2             16.6808014240        3.4606898452       24.7651984765  TIP3      2055            0.0000000000
     28486      2248  TIP3      OH2             2.5761933675        4.3252033339       30.3300532738  TIP3      2056            0.0000000000
     28487      2248  TIP3      H1              3.0602660975        3.4689661046       30.3198928154  TIP3      2056            0.0000000000
     28488      2248  TIP3      H2              3.2988222109        4.9734942095       30.2697022495  TIP3      2056            0.0000000000
     28489      2249  TIP3      OH2             1.0543596393        7.3993668689       30.8475081775  TIP3      2057            0.0000000000
     28490      2249  TIP3      H1              1.4843379307        7.0606078468       30.0389282281  TIP3      2057            0.0000000000
     28491      2249  TIP3      H2              1.5519823385        8.2142759607       30.9992549032  TIP3      2057            0.0000000000
     28492      2250  TIP3      OH2            18.6682209335        3.5124927517       36.7071476866  TIP3      2058            0.0000000000
     28493      2250  TIP3      H1             17.8189123855        3.2983506348       37.1409645669  TIP3      2058            0.0000000000
     28494      2250  TIP3      H2             18.3826880283        3.4065584553       35.7794014978  TIP3      2058            0.0000000000
     28495      2251  TIP3      OH2            18.6167398684        3.9946626370       21.4226912367  TIP3      2059            0.0000000000
     28496      2251  TIP3      H1             18.9729682310        3.1723122800       21.0765722655  TIP3      2059            0.0000000000
     28497      2251  TIP3      H2             19.2434483429        4.6145072676       21.0160927174  TIP3      2059            0.0000000000
     28498      2252  TIP3      OH2             1.3849961146        4.0299104255       25.1577406713  TIP3      2060            0.0000000000
     28499      2252  TIP3      H1              0.4134924199        4.0019722327       25.1744802080  TIP3      2060            0.0000000000
     28500      2252  TIP3      H2              1.5083110484        4.4046466192       24.2601554394  TIP3      2060            0.0000000000
     28501      2253  TIP3      OH2            16.3942829798       18.6133091282       26.9661348988  TIP3      2061            0.0000000000
     28502      2253  TIP3      H1             16.9075257367       18.4201729339       26.1569472580  TIP3      2061            0.0000000000
     28503      2253  TIP3      H2             17.0090997005       19.0552386890       27.5755821459  TIP3      2061            0.0000000000
     28504      2254  TIP3      OH2             1.3223538404        2.2185508610       33.1573518685  TIP3      2062            0.0000000000
     28505      2254  TIP3      H1              0.6327246949        1.9217173699       33.7865021448  TIP3      2062            0.0000000000
     28506      2254  TIP3      H2              0.9315113006        2.9849168447       32.7176601700  TIP3      2062            0.0000000000
     28507      2255  TIP3      OH2             3.3975970975       15.4293693413       37.1173755909  TIP3      2063            0.0000000000
     28508      2255  TIP3      H1              2.5916927562       15.8284591165       36.7489347638  TIP3      2063            0.0000000000
     28509      2255  TIP3      H2              3.0869048385       15.0478671222       37.9457974901  TIP3      2063            0.0000000000
     28510      2256  TIP3      OH2             6.3536862474       16.9272605442       33.7944025083  TIP3      2064            0.0000000000
     28511      2256  TIP3      H1              6.2217047802       17.8155645428       33.4022318169  TIP3      2064            0.0000000000
     28512      2256  TIP3      H2              7.3374915966       16.8701972150       33.7521532683  TIP3      2064            0.0000000000
     28513      2257  TIP3      OH2            10.3530490909       18.0944951687       36.2381222454  TIP3      2065            0.0000000000
     28514      2257  TIP3      H1             10.4537846043       18.0499361117       37.2067967669  TIP3      2065            0.0000000000
     28515      2257  TIP3      H2             11.2184373539       18.4828695473       35.9887525831  TIP3      2065            0.0000000000
     28516      2258  TIP3      OH2            12.5465294583       19.7312620827       35.8989661966  TIP3      2066            0.0000000000
     28517      2258  TIP3      H1             13.4123256450       19.3342945012       35.7014844568  TIP3      2066            0.0000000000
     28518      2258  TIP3      H2             12.7456289865       20.2049265257       36.7270875476  TIP3      2066            0.0000000000
     28519      2259  TIP3      OH2            17.7831156308        1.5719375838       34.8825556724  TIP3      2067            0.0000000000
     28520      2259  TIP3      H1             16.9110158046        1.5810307333       34.4697726470  TIP3      2067            0.0000000000
     28521      2259  TIP3      H2             18.0592669144        0.6565550166       34.7071204018  TIP3      2067            0.0000000000
     28522      2260  TIP3      OH2             3.6003297085       20.1169208792       33.3761706976  TIP3      2068            0.0000000000
     28523      2260  TIP3      H1              2.8014781871       20.5887411615       33.0449224569  TIP3      2068            0.0000000000
     28524      2260  TIP3      H2              3.5781149853       20.4077168064       34.2980725962  TIP3      2068            0.0000000000
     28525      2261  TIP3      OH2             5.8876785724       19.3028962311       32.3491825365  TIP3      2069            0.0000000000
     28526      2261  TIP3      H1              4.9567763639       19.5459972962       32.5754494580  TIP3      2069            0.0000000000
     28527      2261  TIP3      H2              6.1243863606       20.0380482476       31.7484384214  TIP3      2069            0.0000000000
     28528      2262  TIP3      OH2            10.8140755486       19.0471291567       31.7096216264  TIP3      2070            0.0000000000
     28529      2262  TIP3      H1             10.2246387672       19.4799063912       31.0807411173  TIP3      2070            0.0000000000
     28530      2262  TIP3      H2             10.9592625717       19.7726972927       32.3567254192  TIP3      2070            0.0000000000
     28531      2263  TIP3      OH2            12.8807033225       17.7772468283       33.1947367724  TIP3      2071            0.0000000000
     28532      2263  TIP3      H1             12.2610471828       18.0894690672       32.5017103793  TIP3      2071            0.0000000000
     28533      2263  TIP3      H2             13.5628658338       18.4589312920       33.0286322025  TIP3      2071            0.0000000000
     28534      2264  TIP3      OH2            14.5917495848       20.2214578017       32.4684708204  TIP3      2072            0.0000000000
     28535      2264  TIP3      H1             14.6698348297       21.1903288435       32.3556273174  TIP3      2072            0.0000000000
     28536      2264  TIP3      H2             15.5040188796       19.9598938440       32.2344066935  TIP3      2072            0.0000000000
     28537      2265  TIP3      OH2             3.2015619378       18.4448816707       30.3764752825  TIP3      2073            0.0000000000
     28538      2265  TIP3      H1              3.0755004500       17.8438810047       31.1432775429  TIP3      2073            0.0000000000
     28539      2265  TIP3      H2              4.1339785631       18.2780826402       30.1265038403  TIP3      2073            0.0000000000
     28540      2266  TIP3      OH2             5.5675299802       17.9029104225       29.0272746212  TIP3      2074            0.0000000000
     28541      2266  TIP3      H1              5.4227823717       16.9429626308       29.1142765746  TIP3      2074            0.0000000000
     28542      2266  TIP3      H2              6.3520606401       18.0046961406       29.6192038881  TIP3      2074            0.0000000000
     28543      2267  TIP3      OH2             7.6345230893       17.5708356801       30.7204845212  TIP3      2075            0.0000000000
     28544      2267  TIP3      H1              8.1111780819       16.7296997432       30.7799250199  TIP3      2075            0.0000000000
     28545      2267  TIP3      H2              7.7918562499       17.9202602757       31.6202737332  TIP3      2075            0.0000000000
     28546      2268  TIP3      OH2            10.7302112609        3.0622415781       28.6416532529  TIP3      2076            0.0000000000
     28547      2268  TIP3      H1             10.0148825718        2.9236086570       29.2900610564  TIP3      2076            0.0000000000
     28548      2268  TIP3      H2             11.0216028035        2.1467524584       28.5022708747  TIP3      2076            0.0000000000
     28549      2269  TIP3      OH2            16.5473731184        1.3013162863       28.9889327584  TIP3      2077            0.0000000000
     28550      2269  TIP3      H1             17.2219349714        1.9149120976       28.6073554245  TIP3      2077            0.0000000000
     28551      2269  TIP3      H2             15.7217170891        1.6847697554       28.6208923104  TIP3      2077            0.0000000000
     28552      2270  TIP3      OH2            18.1266130634        2.7449916060       27.3576258875  TIP3      2078            0.0000000000
     28553      2270  TIP3      H1             18.7667883281        2.1530621558       26.8940974751  TIP3      2078            0.0000000000
     28554      2270  TIP3      H2             18.7634005683        3.4436079516       27.6453615734  TIP3      2078            0.0000000000
     28555      2271  TIP3      OH2             3.7960096396        1.7633704102       27.2318058725  TIP3      2079            0.0000000000
     28556      2271  TIP3      H1              2.9391243529        1.7383051560       26.7739078168  TIP3      2079            0.0000000000
     28557      2271  TIP3      H2              4.1720087815        0.8904476023       26.9723800549  TIP3      2079            0.0000000000
     28558      2272  TIP3      OH2             8.1703965865        1.4085187279       26.9121215983  TIP3      2080            0.0000000000
     28559      2272  TIP3      H1              8.9526697017        1.4365535908       26.3464686938  TIP3      2080            0.0000000000
     28560      2272  TIP3      H2              8.5585054802        1.5555958381       27.7790129121  TIP3      2080            0.0000000000
     28561      2273  TIP3      OH2            13.9770822923        1.7224700782       28.1577436050  TIP3      2081            0.0000000000
     28562      2273  TIP3      H1             13.3901471208        2.0015768226       27.4441826268  TIP3      2081            0.0000000000
     28563      2273  TIP3      H2             13.5115004749        0.9333241672       28.5021692500  TIP3      2081            0.0000000000
     28564      2274  TIP3      OH2             3.8782428719        3.8913502695       21.4514256629  TIP3      2082            0.0000000000
     28565      2274  TIP3      H1              4.2297303444        3.1428090657       20.9613140488  TIP3      2082            0.0000000000
     28566      2274  TIP3      H2              4.6989041755        4.2022119598       21.8550703072  TIP3      2082            0.0000000000
     28567      2275  TIP3      OH2             9.3741840632        3.9135128026       23.6754522162  TIP3      2083            0.0000000000
     28568      2275  TIP3      H1              9.5554451554        3.4545626366       24.5176143662  TIP3      2083            0.0000000000
     28569      2275  TIP3      H2              9.5395680548        4.8351932410       23.9487465628  TIP3      2083            0.0000000000
     28570      2276  TIP3      OH2            17.7124793004       17.9914330910       24.7294422230  TIP3      2084            0.0000000000
     28571      2276  TIP3      H1             17.5116647101       17.1641342133       24.2309666984  TIP3      2084            0.0000000000
     28572      2276  TIP3      H2             17.5885838674       18.6822152281       24.0454895184  TIP3      2084            0.0000000000
     28573      2277  TIP3      OH2             3.4772279301        2.4546472625       36.2792885757  TIP3      2085            0.0000000000
     28574      2277  TIP3      H1              2.9268820398        1.6569104388       36.4004140274  TIP3      2085            0.0000000000
     28575      2277  TIP3      H2              4.1854047118        2.3007205740       36.9438897542  TIP3      2085            0.0000000000
     28576      2278  TIP3      OH2             5.3895976674        1.8914555028       38.2104938741  TIP3      2086            0.0000000000
     28577      2278  TIP3      H1              6.1573003002        1.3809085301       37.8987324924  TIP3      2086            0.0000000000
     28578      2278  TIP3      H2              4.8906736495        1.2020273635       38.6938767135  TIP3      2086            0.0000000000
     28579      2279  TIP3      OH2            13.8362281384        0.9709866589       38.5863207125  TIP3      2087            0.0000000000
     28580      2279  TIP3      H1             14.0824388626        0.5883290599       39.4573651598  TIP3      2087            0.0000000000
     28581      2279  TIP3      H2             14.7212004083        0.9922019524       38.1558388068  TIP3      2087            0.0000000000
     28582      2280  TIP3      OH2            17.1510882866       17.1395054584       36.9329076960  TIP3      2088            0.0000000000
     28583      2280  TIP3      H1             16.5471343471       17.2099209483       36.1601962420  TIP3      2088            0.0000000000
     28584      2280  TIP3      H2             17.0551160950       18.0461944390       37.2673986409  TIP3      2088            0.0000000000
     28585      2281  TIP3      OH2            32.0163086039       10.9845055189       26.8432900746  TIP3      2089            0.0000000000
     28586      2281  TIP3      H1             32.2165171310       11.9357247991       26.8505593262  TIP3      2089            0.0000000000
     28587      2281  TIP3      H2             31.1483794987       11.0154776425       26.4150969865  TIP3      2089            0.0000000000
     28588      2282  TIP3      OH2            30.6755116562       10.2618657011       29.7515402792  TIP3      2090            0.0000000000
     28589      2282  TIP3      H1             30.6684744689       10.0836112782       30.7066148820  TIP3      2090            0.0000000000
     28590      2282  TIP3      H2             29.9906017162        9.6536515773       29.4136018987  TIP3      2090            0.0000000000
     28591      2283  TIP3      OH2            22.6481395102        9.9227682643       31.3911295389  TIP3      2091            0.0000000000
     28592      2283  TIP3      H1             22.8632369511        9.1671625800       31.9465711592  TIP3      2091            0.0000000000
     28593      2283  TIP3      H2             23.1812254953       10.6177184999       31.8063665522  TIP3      2091            0.0000000000
     28594      2284  TIP3      OH2            34.3866346271       13.1724562221       28.9621117852  TIP3      2092            0.0000000000
     28595      2284  TIP3      H1             34.2116067616       12.2943545538       29.3269720612  TIP3      2092            0.0000000000
     28596      2284  TIP3      H2             34.2418141054       13.7279937840       29.7455773552  TIP3      2092            0.0000000000
     28597      2285  TIP3      OH2            23.9671865466       14.5054075289       29.8697697435  TIP3      2093            0.0000000000
     28598      2285  TIP3      H1             23.6723689941       13.5844093586       29.7164826461  TIP3      2093            0.0000000000
     28599      2285  TIP3      H2             24.9252067370       14.3969714867       29.7199912667  TIP3      2093            0.0000000000
     28600      2286  TIP3      OH2            20.5787020764        7.7444859058       25.4168703837  TIP3      2094            0.0000000000
     28601      2286  TIP3      H1             20.3665025353        8.6557552398       25.6681875698  TIP3      2094            0.0000000000
     28602      2286  TIP3      H2             19.6869421343        7.4386989892       25.1645243316  TIP3      2094            0.0000000000
     28603      2287  TIP3      OH2            21.1384971766       10.2691514794       28.1828340085  TIP3      2095            0.0000000000
     28604      2287  TIP3      H1             21.4928790231        9.3700976088       28.3822384784  TIP3      2095            0.0000000000
     28605      2287  TIP3      H2             21.7496500986       10.6076412618       27.5198919605  TIP3      2095            0.0000000000
     28606      2288  TIP3      OH2            31.1983782319       18.3393022471       28.6934210981  TIP3      2096            0.0000000000
     28607      2288  TIP3      H1             31.9204486904       17.7608816280       28.3394943424  TIP3      2096            0.0000000000
     28608      2288  TIP3      H2             30.9752092539       17.8157301264       29.4757385041  TIP3      2096            0.0000000000
     28609      2289  TIP3      OH2            28.6877593044       13.2806901107       31.0916054702  TIP3      2097            0.0000000000
     28610      2289  TIP3      H1             29.0195119203       12.7274740016       30.3744738292  TIP3      2097            0.0000000000
     28611      2289  TIP3      H2             29.4841002313       13.3387243005       31.6627654457  TIP3      2097            0.0000000000
     28612      2290  TIP3      OH2            32.2338254383        7.2268436735       31.5152180798  TIP3      2098            0.0000000000
     28613      2290  TIP3      H1             32.3580281915        6.2735803342       31.6678666442  TIP3      2098            0.0000000000
     28614      2290  TIP3      H2             32.3077154999        7.2199204741       30.5457640212  TIP3      2098            0.0000000000
     28615      2291  TIP3      OH2            25.1729329172        4.8682068078       27.9788710371  TIP3      2099            0.0000000000
     28616      2291  TIP3      H1             25.4802137847        5.7247667067       27.6101720824  TIP3      2099            0.0000000000
     28617      2291  TIP3      H2             24.7611713882        4.4811296143       27.1772807414  TIP3      2099            0.0000000000
     28618      2292  TIP3      OH2            21.9159869294        7.7625689792       28.7620426869  TIP3      2100            0.0000000000
     28619      2292  TIP3      H1             22.4361694689        7.3093365262       29.4427462323  TIP3      2100            0.0000000000
     28620      2292  TIP3      H2             22.2063832308        7.2994275399       27.9454162691  TIP3      2100            0.0000000000
     28621      2293  TIP3      OH2            26.6966978128        9.2393798215       28.4510469792  TIP3      2101            0.0000000000
     28622      2293  TIP3      H1             27.5973192628        8.8699915177       28.5505802796  TIP3      2101            0.0000000000
     28623      2293  TIP3      H2             26.2449562426        8.4356207483       28.1039828714  TIP3      2101            0.0000000000
     28624      2294  TIP3      OH2            24.3079194843        4.3412888178       32.3936662672  TIP3      2102            0.0000000000
     28625      2294  TIP3      H1             23.9192864377        4.7281499186       31.5804596468  TIP3      2102            0.0000000000
     28626      2294  TIP3      H2             23.5702793806        4.4525649117       33.0289536399  TIP3      2102            0.0000000000
     28627      2295  TIP3      OH2            31.2198015196       13.6338394909       25.6642851568  TIP3      2103            0.0000000000
     28628      2295  TIP3      H1             30.5833989988       13.5450148672       24.9301185013  TIP3      2103            0.0000000000
     28629      2295  TIP3      H2             30.9137210605       14.4857340456       26.0331955710  TIP3      2103            0.0000000000
     28630      2296  TIP3      OH2            26.3162050795       12.0337538931       32.0174667355  TIP3      2104            0.0000000000
     28631      2296  TIP3      H1             25.6444295999       12.6995059138       32.2903158584  TIP3      2104            0.0000000000
     28632      2296  TIP3      H2             27.0150640000       12.6281316660       31.6787543821  TIP3      2104            0.0000000000
     28633      2297  TIP3      OH2            34.5204025323        4.9853480090       28.7934333662  TIP3      2105            0.0000000000
     28634      2297  TIP3      H1             34.0798393433        4.2437406074       29.2103587646  TIP3      2105            0.0000000000
     28635      2297  TIP3      H2             35.0802351198        5.3263536466       29.5141887363  TIP3      2105            0.0000000000
     28636      2298  TIP3      OH2            23.8139625430        6.0688576425       30.0706483432  TIP3      2106            0.0000000000
     28637      2298  TIP3      H1             24.4529877850        6.7844466003       30.2284055185  TIP3      2106            0.0000000000
     28638      2298  TIP3      H2             24.2238433083        5.6550592944       29.2721032811  TIP3      2106            0.0000000000
     28639      2299  TIP3      OH2            24.9441461011       14.0492323548       33.1531999650  TIP3      2107            0.0000000000
     28640      2299  TIP3      H1             24.7343349867       14.8077405579       32.5788235641  TIP3      2107            0.0000000000
     28641      2299  TIP3      H2             24.0907257334       13.9816200783       33.6518310004  TIP3      2107            0.0000000000
     28642      2300  TIP3      OH2            34.6369475184       15.0717214059       31.1186949710  TIP3      2108            0.0000000000
     28643      2300  TIP3      H1             33.7137388317       15.0157967996       31.4593727960  TIP3      2108            0.0000000000
     28644      2300  TIP3      H2             34.6584268614       15.9927310879       30.8075337110  TIP3      2108            0.0000000000
     28645      2301  TIP3      OH2            35.0708294721        3.7726910327       32.0326644333  TIP3      2109            0.0000000000
     28646      2301  TIP3      H1             34.1846245947        4.0727107760       31.7536580328  TIP3      2109            0.0000000000
     28647      2301  TIP3      H2             35.6073527348        4.5338709758       31.7413513368  TIP3      2109            0.0000000000
     28648      2302  TIP3      OH2            27.7595874922        1.5925036174       29.5916764941  TIP3      2110            0.0000000000
     28649      2302  TIP3      H1             27.5506180788        0.6557691224       29.7305397051  TIP3      2110            0.0000000000
     28650      2302  TIP3      H2             26.9234380961        2.0022559061       29.9519108078  TIP3      2110            0.0000000000
     28651      2303  TIP3      OH2            32.9832435045       16.7554674324       27.6964066944  TIP3      2111            0.0000000000
     28652      2303  TIP3      H1             33.3320964355       15.8795444552       27.4128129667  TIP3      2111            0.0000000000
     28653      2303  TIP3      H2             33.5344806443       17.3331890662       27.1388377556  TIP3      2111            0.0000000000
     28654      2304  TIP3      OH2            34.3280033098       14.6754173161       26.7246358434  TIP3      2112            0.0000000000
     28655      2304  TIP3      H1             34.0205162215       14.1458850335       25.9772206816  TIP3      2112            0.0000000000
     28656      2304  TIP3      H2             34.4406621909       13.9912701650       27.4350794282  TIP3      2112            0.0000000000
     28657      2305  TIP3      OH2            35.6049762975       13.2702720789       34.8697941728  TIP3      2113            0.0000000000
     28658      2305  TIP3      H1             35.6075469331       12.6353877177       34.1268674783  TIP3      2113            0.0000000000
     28659      2305  TIP3      H2             35.6679743339       14.1183240265       34.3800162739  TIP3      2113            0.0000000000
     28660      2306  TIP3      OH2            30.4482538148       10.5636504551       23.9449270075  TIP3      2114            0.0000000000
     28661      2306  TIP3      H1             29.8338028153       11.3223498212       23.8910999603  TIP3      2114            0.0000000000
     28662      2306  TIP3      H2             31.1153846577       10.8359267964       23.2597571010  TIP3      2114            0.0000000000
     28663      2307  TIP3      OH2            34.2907623155       10.2238643617       24.9166795806  TIP3      2115            0.0000000000
     28664      2307  TIP3      H1             33.5084181383       10.6270364410       25.3193465522  TIP3      2115            0.0000000000
     28665      2307  TIP3      H2             34.7225980677        9.8612932320       25.7315550636  TIP3      2115            0.0000000000
     28666      2308  TIP3      OH2            33.4827549842        8.7109652901       34.4494140718  TIP3      2116            0.0000000000
     28667      2308  TIP3      H1             33.7751628408        9.6196430301       34.6322656217  TIP3      2116            0.0000000000
     28668      2308  TIP3      H2             32.7773598667        8.8913696365       33.8060378734  TIP3      2116            0.0000000000
     28669      2309  TIP3      OH2            25.2952365028       11.0584720971       27.0874381759  TIP3      2117            0.0000000000
     28670      2309  TIP3      H1             25.1392490485       10.7740371021       26.1673079261  TIP3      2117            0.0000000000
     28671      2309  TIP3      H2             25.9727002497       10.4068875946       27.3716069743  TIP3      2117            0.0000000000
     28672      2310  TIP3      OH2            26.7023604850       14.4539987928       29.5259949578  TIP3      2118            0.0000000000
     28673      2310  TIP3      H1             26.8522574555       14.1670346007       28.6137045000  TIP3      2118            0.0000000000
     28674      2310  TIP3      H2             27.4758907394       14.0984584711       30.0028193451  TIP3      2118            0.0000000000
     28675      2311  TIP3      OH2            25.4989455579        9.8443234272       30.7362643055  TIP3      2119            0.0000000000
     28676      2311  TIP3      H1             25.8642317861        9.8210849830       29.8195984013  TIP3      2119            0.0000000000
     28677      2311  TIP3      H2             25.9225138255       10.6577675835       31.0989902662  TIP3      2119            0.0000000000
     28678      2312  TIP3      OH2            32.0392125202       15.5156196594       31.6173651689  TIP3      2120            0.0000000000
     28679      2312  TIP3      H1             31.9425402025       16.2520074342       32.2496123568  TIP3      2120            0.0000000000
     28680      2312  TIP3      H2             31.5545745754       14.8006407514       32.0780242519  TIP3      2120            0.0000000000
     28681      2313  TIP3      OH2            26.8026846963       14.5002688876       35.1588910722  TIP3      2121            0.0000000000
     28682      2313  TIP3      H1             26.1024253408       14.9383871332       35.7032010128  TIP3      2121            0.0000000000
     28683      2313  TIP3      H2             26.2791178765       14.3024909544       34.3488029912  TIP3      2121            0.0000000000
     28684      2314  TIP3      OH2            23.6776187169       10.4178882754       34.2529063590  TIP3      2122            0.0000000000
     28685      2314  TIP3      H1             23.8838386150       11.3566411303       34.4193293819  TIP3      2122            0.0000000000
     28686      2314  TIP3      H2             22.9353573019       10.3219803703       34.8722344657  TIP3      2122            0.0000000000
     28687      2315  TIP3      OH2            29.9820472867       16.1381009957       26.1003367711  TIP3      2123            0.0000000000
     28688      2315  TIP3      H1             30.4070597143       16.6912958953       26.7760503165  TIP3      2123            0.0000000000
     28689      2315  TIP3      H2             29.7972198809       16.7791271363       25.4057858202  TIP3      2123            0.0000000000
     28690      2316  TIP3      OH2            24.9039758784       15.9480502712       36.3741952231  TIP3      2124            0.0000000000
     28691      2316  TIP3      H1             24.7447597891       16.4194385681       35.5274605683  TIP3      2124            0.0000000000
     28692      2316  TIP3      H2             23.9750414013       15.7686795874       36.6302608397  TIP3      2124            0.0000000000
     28693      2317  TIP3      OH2            24.4321451920        9.8576230500       24.6497557512  TIP3      2125            0.0000000000
     28694      2317  TIP3      H1             23.8440995835       10.6081039624       24.5201086354  TIP3      2125            0.0000000000
     28695      2317  TIP3      H2             23.8687227712        9.1177755886       24.3771678019  TIP3      2125            0.0000000000
     28696      2318  TIP3      OH2            20.6072604485       12.7045563601       33.7238028626  TIP3      2126            0.0000000000
     28697      2318  TIP3      H1             20.3585424894       12.8395394869       32.7988210704  TIP3      2126            0.0000000000
     28698      2318  TIP3      H2             20.9872889374       11.8048606657       33.6925333560  TIP3      2126            0.0000000000
     28699      2319  TIP3      OH2            20.4421825036       15.3104194557       30.3725264160  TIP3      2127            0.0000000000
     28700      2319  TIP3      H1             21.3910525806       15.1248520813       30.3500181831  TIP3      2127            0.0000000000
     28701      2319  TIP3      H2             20.3889471816       16.1167085262       30.9064279584  TIP3      2127            0.0000000000
     28702      2320  TIP3      OH2            29.3458299318       15.4193142410       35.1979540446  TIP3      2128            0.0000000000
     28703      2320  TIP3      H1             29.4809437887       16.1488739184       35.8195439200  TIP3      2128            0.0000000000
     28704      2320  TIP3      H2             28.4013067913       15.1740208217       35.3192562391  TIP3      2128            0.0000000000
     28705      2321  TIP3      OH2            29.7491254839       19.2738221482       24.3348671893  TIP3      2129            0.0000000000
     28706      2321  TIP3      H1             28.7915213632       19.3281912305       24.2160913520  TIP3      2129            0.0000000000
     28707      2321  TIP3      H2             29.9244712324       20.0744878388       24.8724712660  TIP3      2129            0.0000000000
     28708      2322  TIP3      OH2            23.3432515158       18.0487690818       26.7617301165  TIP3      2130            0.0000000000
     28709      2322  TIP3      H1             23.8068764366       17.8328639664       27.6074366167  TIP3      2130            0.0000000000
     28710      2322  TIP3      H2             22.4291863474       17.9084411639       27.0630765870  TIP3      2130            0.0000000000
     28711      2323  TIP3      OH2            32.2805956473       18.4013786820       24.5604938355  TIP3      2131            0.0000000000
     28712      2323  TIP3      H1             31.4050015558       18.8302882257       24.4647539329  TIP3      2131            0.0000000000
     28713      2323  TIP3      H2             32.0546822466       17.5041941658       24.2598191841  TIP3      2131            0.0000000000
     28714      2324  TIP3      OH2            35.0195323895        7.5247856593       36.8256736521  TIP3      2132            0.0000000000
     28715      2324  TIP3      H1             34.7412332173        7.3522169993       35.9151118737  TIP3      2132            0.0000000000
     28716      2324  TIP3      H2             35.9689094031        7.2777014089       36.7658785130  TIP3      2132            0.0000000000
     28717      2325  TIP3      OH2            22.7538478242       14.0648728917       34.6092732979  TIP3      2133            0.0000000000
     28718      2325  TIP3      H1             22.7782670982       13.8523645535       35.5586852258  TIP3      2133            0.0000000000
     28719      2325  TIP3      H2             21.8909418175       13.6800576617       34.3507197455  TIP3      2133            0.0000000000
     28720      2326  TIP3      OH2            25.5119135330        2.5205090223       30.6311676408  TIP3      2134            0.0000000000
     28721      2326  TIP3      H1             24.7631548138        2.5860105732       30.0082464603  TIP3      2134            0.0000000000
     28722      2326  TIP3      H2             25.1631562116        3.0001659085       31.4045330504  TIP3      2134            0.0000000000
     28723      2327  TIP3      OH2            30.3948521383        1.9135861162       33.9191697770  TIP3      2135            0.0000000000
     28724      2327  TIP3      H1             30.8193654800        1.5409583814       34.7251708629  TIP3      2135            0.0000000000
     28725      2327  TIP3      H2             29.4390889604        1.7654888453       34.0999230054  TIP3      2135            0.0000000000
     28726      2328  TIP3      OH2            33.2972439877        5.7674144203       34.6184795473  TIP3      2136            0.0000000000
     28727      2328  TIP3      H1             32.7802164199        5.6241591455       35.4355919592  TIP3      2136            0.0000000000
     28728      2328  TIP3      H2             33.0333208454        6.6800315482       34.4016513059  TIP3      2136            0.0000000000
     28729      2329  TIP3      OH2            25.7087108025        7.4172770890       31.7391671430  TIP3      2137            0.0000000000
     28730      2329  TIP3      H1             24.7381701504        7.3358902704       31.7374056628  TIP3      2137            0.0000000000
     28731      2329  TIP3      H2             25.7807362602        8.3281113022       31.3606190799  TIP3      2137            0.0000000000
     28732      2330  TIP3      OH2            25.6799486131        7.2472282660       26.9442603855  TIP3      2138            0.0000000000
     28733      2330  TIP3      H1             24.7454999461        7.3138468609       26.6783085366  TIP3      2138            0.0000000000
     28734      2330  TIP3      H2             26.1230885786        7.1641013174       26.0777072181  TIP3      2138            0.0000000000
     28735      2331  TIP3      OH2            31.1580417769        8.2143515361       25.7316091461  TIP3      2139            0.0000000000
     28736      2331  TIP3      H1             30.7672523906        9.0494661038       25.4126500783  TIP3      2139            0.0000000000
     28737      2331  TIP3      H2             31.8546763005        8.1126072704       25.0802700292  TIP3      2139            0.0000000000
     28738      2332  TIP3      OH2            29.5010186237        8.2465971117       36.9295483085  TIP3      2140            0.0000000000
     28739      2332  TIP3      H1             29.2090335396        7.3369122542       37.1532239439  TIP3      2140            0.0000000000
     28740      2332  TIP3      H2             30.3192939311        8.3271087886       37.4366273267  TIP3      2140            0.0000000000
     28741      2333  TIP3      OH2            32.0680450163        7.6404969528       28.6414451323  TIP3      2141            0.0000000000
     28742      2333  TIP3      H1             31.8514967729        8.3809252097       28.0344383489  TIP3      2141            0.0000000000
     28743      2333  TIP3      H2             32.1472076368        6.9083947738       28.0171900721  TIP3      2141            0.0000000000
     28744      2334  TIP3      OH2            23.1804938845        7.3765823853       33.0546560489  TIP3      2142            0.0000000000
     28745      2334  TIP3      H1             23.0600426295        8.0559408205       33.7394122564  TIP3      2142            0.0000000000
     28746      2334  TIP3      H2             22.6511579405        6.6325524385       33.4084412788  TIP3      2142            0.0000000000
     28747      2335  TIP3      OH2            19.9926577446        4.6276055426       27.6706652458  TIP3      2143            0.0000000000
     28748      2335  TIP3      H1             20.7118125574        4.6137133904       28.3232631579  TIP3      2143            0.0000000000
     28749      2335  TIP3      H2             20.3495783865        5.1691017066       26.9517069963  TIP3      2143            0.0000000000
     28750      2336  TIP3      OH2            20.8544964475        5.4571977999       22.6829395444  TIP3      2144            0.0000000000
     28751      2336  TIP3      H1             21.5598871007        5.2271044672       22.0417671573  TIP3      2144            0.0000000000
     28752      2336  TIP3      H2             21.1535330042        6.3150947506       23.0099705527  TIP3      2144            0.0000000000
     28753      2337  TIP3      OH2            31.1798010128        9.7064661190       32.6614824736  TIP3      2145            0.0000000000
     28754      2337  TIP3      H1             31.6172582717        8.9532103552       32.2111108730  TIP3      2145            0.0000000000
     28755      2337  TIP3      H2             30.7004769958        9.2519192965       33.3735995861  TIP3      2145            0.0000000000
     28756      2338  TIP3      OH2            28.0621895169        5.0861745202       27.7778585716  TIP3      2146            0.0000000000
     28757      2338  TIP3      H1             27.1171281497        4.9622843911       27.9974543700  TIP3      2146            0.0000000000
     28758      2338  TIP3      H2             28.5076266834        4.7507569049       28.5707916170  TIP3      2146            0.0000000000
     28759      2339  TIP3      OH2            22.7809443040        6.4511749565       26.5941406080  TIP3      2147            0.0000000000
     28760      2339  TIP3      H1             22.1483503791        6.7859881710       25.9204822583  TIP3      2147            0.0000000000
     28761      2339  TIP3      H2             23.1234436027        5.6270067848       26.1736260568  TIP3      2147            0.0000000000
     28762      2340  TIP3      OH2            26.2636846027        6.7301093674       24.1223669871  TIP3      2148            0.0000000000
     28763      2340  TIP3      H1             27.1714763332        7.0631434990       24.0216036613  TIP3      2148            0.0000000000
     28764      2340  TIP3      H2             25.7849590725        7.3248147855       23.5166749926  TIP3      2148            0.0000000000
     28765      2341  TIP3      OH2            32.3307386787        4.5262946644       31.0921862438  TIP3      2149            0.0000000000
     28766      2341  TIP3      H1             31.7405481737        4.3301940238       31.8348784889  TIP3      2149            0.0000000000
     28767      2341  TIP3      H2             31.8735849832        4.0429877069       30.3911501202  TIP3      2149            0.0000000000
     28768      2342  TIP3      OH2            25.3595277949        8.1836488968       21.8459680851  TIP3      2150            0.0000000000
     28769      2342  TIP3      H1             24.5434655691        7.6867034472       21.6506007179  TIP3      2150            0.0000000000
     28770      2342  TIP3      H2             25.8910734322        8.0811103705       21.0428577670  TIP3      2150            0.0000000000
     28771      2343  TIP3      OH2            35.5238816152       19.8088016261       37.2551733959  TIP3      2151            0.0000000000
     28772      2343  TIP3      H1             36.0104760427       19.8174546807       36.4188984562  TIP3      2151            0.0000000000
     28773      2343  TIP3      H2             35.5884029708       20.7584097764       37.5146356757  TIP3      2151            0.0000000000
     28774      2344  TIP3      OH2            23.3087264377       12.2856609255       36.7771148078  TIP3      2152            0.0000000000
     28775      2344  TIP3      H1             24.0164837775       12.6105500815       37.3731305654  TIP3      2152            0.0000000000
     28776      2344  TIP3      H2             22.5457242756       12.2275724229       37.3915801241  TIP3      2152            0.0000000000
     28777      2345  TIP3      OH2            29.1278310807        8.0502580440       29.1581377269  TIP3      2153            0.0000000000
     28778      2345  TIP3      H1             29.9807714940        7.5922823952       29.0610087275  TIP3      2153            0.0000000000
     28779      2345  TIP3      H2             28.8320801090        7.7757592709       30.0315153945  TIP3      2153            0.0000000000
     28780      2346  TIP3      OH2            23.7455291009        4.0367257522       25.8607346415  TIP3      2154            0.0000000000
     28781      2346  TIP3      H1             23.3405716807        3.3126895753       26.3897658964  TIP3      2154            0.0000000000
     28782      2346  TIP3      H2             23.9743795309        3.5971661214       25.0230335031  TIP3      2154            0.0000000000
     28783      2347  TIP3      OH2            28.1924582586        6.1262586331       32.3225509802  TIP3      2155            0.0000000000
     28784      2347  TIP3      H1             27.5684395070        6.7546086205       31.9326126358  TIP3      2155            0.0000000000
     28785      2347  TIP3      H2             28.8167275957        6.7043090228       32.8170841692  TIP3      2155            0.0000000000
     28786      2348  TIP3      OH2            28.7827178094       12.8380295891       23.9826416952  TIP3      2156            0.0000000000
     28787      2348  TIP3      H1             28.1717181103       12.2397513976       23.5053913921  TIP3      2156            0.0000000000
     28788      2348  TIP3      H2             28.2544459642       12.9796670815       24.8037517655  TIP3      2156            0.0000000000
     28789      2349  TIP3      OH2            35.6430652854       11.7976580077       32.6553945462  TIP3      2157            0.0000000000
     28790      2349  TIP3      H1             36.1480312791       11.6824483874       31.8171268542  TIP3      2157            0.0000000000
     28791      2349  TIP3      H2             34.7328979498       11.7296111213       32.3056369792  TIP3      2157            0.0000000000
     28792      2350  TIP3      OH2            30.4261281735       12.9945015049       35.3551689519  TIP3      2158            0.0000000000
     28793      2350  TIP3      H1             29.8472286727       12.5109748323       35.9537184019  TIP3      2158            0.0000000000
     28794      2350  TIP3      H2             29.9882788581       13.8762273609       35.3664849104  TIP3      2158            0.0000000000
     28795      2351  TIP3      OH2            23.8011442492       11.8470145021       29.5116845696  TIP3      2159            0.0000000000
     28796      2351  TIP3      H1             24.4105909315       11.5853648647       28.7961495866  TIP3      2159            0.0000000000
     28797      2351  TIP3      H2             23.7234545204       11.0168315196       30.0173793963  TIP3      2159            0.0000000000
     28798      2352  TIP3      OH2            20.6209528360       10.1881961211       34.9937291930  TIP3      2160            0.0000000000
     28799      2352  TIP3      H1             20.6318546698        9.4268478418       35.5787686737  TIP3      2160            0.0000000000
     28800      2352  TIP3      H2             20.0492769331        9.9117586382       34.2455346298  TIP3      2160            0.0000000000
     28801      2353  TIP3      OH2            27.4037832818        9.8397724359       36.8427362025  TIP3      2161            0.0000000000
     28802      2353  TIP3      H1             26.7761514752        9.4556606483       36.2038448829  TIP3      2161            0.0000000000
     28803      2353  TIP3      H2             28.2220205145        9.3377058302       36.6501827569  TIP3      2161            0.0000000000
     28804      2354  TIP3      OH2            32.7901736682       14.8981989781       35.1936092092  TIP3      2162            0.0000000000
     28805      2354  TIP3      H1             31.9954808433       14.8105947030       34.6514572611  TIP3      2162            0.0000000000
     28806      2354  TIP3      H2             32.4168667668       15.3355680412       35.9798866825  TIP3      2162            0.0000000000
     28807      2355  TIP3      OH2            36.1479605220       16.4723890523       24.1041554282  TIP3      2163            0.0000000000
     28808      2355  TIP3      H1             35.9300027012       15.5668210987       24.3864494456  TIP3      2163            0.0000000000
     28809      2355  TIP3      H2             35.3890756226       16.6870979259       23.5266624531  TIP3      2163            0.0000000000
     28810      2356  TIP3      OH2            33.3273003378       10.8950793555       30.7216578256  TIP3      2164            0.0000000000
     28811      2356  TIP3      H1             32.4929965036       10.7863974879       30.2266138719  TIP3      2164            0.0000000000
     28812      2356  TIP3      H2             33.8364318429       10.1258303563       30.3734327715  TIP3      2164            0.0000000000
     28813      2357  TIP3      OH2            25.9164941206       15.2042925915       26.9566188699  TIP3      2165            0.0000000000
     28814      2357  TIP3      H1             26.5883764289       15.8251562072       26.6451895143  TIP3      2165            0.0000000000
     28815      2357  TIP3      H2             25.1527437287       15.7852083902       27.0754453416  TIP3      2165            0.0000000000
     28816      2358  TIP3      OH2            21.8323781185       10.1521767352       21.8757242391  TIP3      2166            0.0000000000
     28817      2358  TIP3      H1             22.0735600220       11.0746546517       22.1434770422  TIP3      2166            0.0000000000
     28818      2358  TIP3      H2             21.2492138626       10.3357070940       21.1273181403  TIP3      2166            0.0000000000
     28819      2359  TIP3      OH2            27.1811295148       12.9167821812       26.1595101168  TIP3      2167            0.0000000000
     28820      2359  TIP3      H1             26.7248474852       13.7448383071       26.4110158124  TIP3      2167            0.0000000000
     28821      2359  TIP3      H2             26.7030162508       12.2795129312       26.7192743086  TIP3      2167            0.0000000000
     28822      2360  TIP3      OH2            27.8927230653       17.0756883087       33.2888578536  TIP3      2168            0.0000000000
     28823      2360  TIP3      H1             28.5513020858       17.7039494309       32.9568717819  TIP3      2168            0.0000000000
     28824      2360  TIP3      H2             28.4264213718       16.6147407593       33.9600969638  TIP3      2168            0.0000000000
     28825      2361  TIP3      OH2            26.0419369045       17.9075956407       25.6542099202  TIP3      2169            0.0000000000
     28826      2361  TIP3      H1             25.1238623780       18.0090260301       25.9447828785  TIP3      2169            0.0000000000
     28827      2361  TIP3      H2             26.3938659930       18.7291684976       26.0601275884  TIP3      2169            0.0000000000
     28828      2362  TIP3      OH2            31.0940483270       12.9726760289       32.5950266212  TIP3      2170            0.0000000000
     28829      2362  TIP3      H1             31.1187887495       12.7102259752       33.5459396319  TIP3      2170            0.0000000000
     28830      2362  TIP3      H2             31.6196714865       12.2412519149       32.2065149945  TIP3      2170            0.0000000000
     28831      2363  TIP3      OH2            34.7862476042       17.2886625163       34.7786928688  TIP3      2171            0.0000000000
     28832      2363  TIP3      H1             33.9151174343       16.8512967458       34.8156586303  TIP3      2171            0.0000000000
     28833      2363  TIP3      H2             34.6363009601       18.0087849495       34.1253834197  TIP3      2171            0.0000000000
     28834      2364  TIP3      OH2            22.7637122103        4.9433704701       34.5900245723  TIP3      2172            0.0000000000
     28835      2364  TIP3      H1             21.9717016336        5.0963455339       35.1326672599  TIP3      2172            0.0000000000
     28836      2364  TIP3      H2             23.0345813717        4.0743233133       34.9406288547  TIP3      2172            0.0000000000
     28837      2365  TIP3      OH2            34.8919800222       13.1142693869       23.9504646539  TIP3      2173            0.0000000000
     28838      2365  TIP3      H1             33.9914933999       12.8048096074       23.7738524956  TIP3      2173            0.0000000000
     28839      2365  TIP3      H2             35.4249930374       12.3253471352       24.1048965028  TIP3      2173            0.0000000000
     28840      2366  TIP3      OH2            22.0333249881       16.8168637237       32.4074366825  TIP3      2174            0.0000000000
     28841      2366  TIP3      H1             22.7127782164       16.6417202909       33.0709538527  TIP3      2174            0.0000000000
     28842      2366  TIP3      H2             21.2481787770       17.0050137589       32.9723197001  TIP3      2174            0.0000000000
     28843      2367  TIP3      OH2            26.4278395987       14.6718233524       22.4356395458  TIP3      2175            0.0000000000
     28844      2367  TIP3      H1             27.1754852045       14.0949051519       22.6792959347  TIP3      2175            0.0000000000
     28845      2367  TIP3      H2             26.6471721523       15.5388917015       22.8436509499  TIP3      2175            0.0000000000
     28846      2368  TIP3      OH2            22.9178326479       12.5148235574       22.6680804477  TIP3      2176            0.0000000000
     28847      2368  TIP3      H1             23.0661887895       12.8666802811       23.5510333351  TIP3      2176            0.0000000000
     28848      2368  TIP3      H2             23.7286750998       12.7701846652       22.2090241876  TIP3      2176            0.0000000000
     28849      2369  TIP3      OH2            30.4672991407        4.6813021500       34.1374755870  TIP3      2177            0.0000000000
     28850      2369  TIP3      H1             31.4045127750        4.9141283403       34.2478725595  TIP3      2177            0.0000000000
     28851      2369  TIP3      H2             30.5095201943        3.7003991943       34.0512642967  TIP3      2177            0.0000000000
     28852      2370  TIP3      OH2            29.8439744831       16.4939818957       22.5894980378  TIP3      2178            0.0000000000
     28853      2370  TIP3      H1             29.0210336572       16.5545361126       23.0837470352  TIP3      2178            0.0000000000
     28854      2370  TIP3      H2             29.5632322823       15.9548532986       21.8392330006  TIP3      2178            0.0000000000
     28855      2371  TIP3      OH2            29.1704701949        6.1800037610       25.1883826840  TIP3      2179            0.0000000000
     28856      2371  TIP3      H1             29.6893723312        6.9074871425       25.5771149857  TIP3      2179            0.0000000000
     28857      2371  TIP3      H2             28.6090350433        5.8628723894       25.9225587221  TIP3      2179            0.0000000000
     28858      2372  TIP3      OH2            29.5532923866        7.3021800972       34.3557347035  TIP3      2180            0.0000000000
     28859      2372  TIP3      H1             29.5550029345        7.6414707734       35.2799417787  TIP3      2180            0.0000000000
     28860      2372  TIP3      H2             29.8362334938        6.3593386434       34.4505042877  TIP3      2180            0.0000000000
     28861      2373  TIP3      OH2            29.6090282868        2.9465739115       25.9852391726  TIP3      2181            0.0000000000
     28862      2373  TIP3      H1             29.2060328349        3.1007388984       26.8583810017  TIP3      2181            0.0000000000
     28863      2373  TIP3      H2             30.2311652121        3.6918821445       26.0110613912  TIP3      2181            0.0000000000
     28864      2374  TIP3      OH2            26.8636995059       17.2334123509       23.2152720049  TIP3      2182            0.0000000000
     28865      2374  TIP3      H1             26.6852891055       17.9145090665       22.5492408900  TIP3      2182            0.0000000000
     28866      2374  TIP3      H2             26.4901114287       17.6165321495       24.0474457308  TIP3      2182            0.0000000000
     28867      2375  TIP3      OH2            25.1146039403        4.1471497812       23.1331068283  TIP3      2183            0.0000000000
     28868      2375  TIP3      H1             25.2998645853        5.0517288716       23.4515907618  TIP3      2183            0.0000000000
     28869      2375  TIP3      H2             26.0288653609        3.8277997412       23.0659414875  TIP3      2183            0.0000000000
     28870      2376  TIP3      OH2            35.6995475693        4.4505000893       35.5474047935  TIP3      2184            0.0000000000
     28871      2376  TIP3      H1             34.7647199534        4.7097626068       35.4794233525  TIP3      2184            0.0000000000
     28872      2376  TIP3      H2             36.0838023025        5.1103972071       34.9553001308  TIP3      2184            0.0000000000
     28873      2377  TIP3      OH2            34.3209548446        8.6826047600       29.6165111120  TIP3      2185            0.0000000000
     28874      2377  TIP3      H1             33.5536405757        8.3137020505       29.1328659987  TIP3      2185            0.0000000000
     28875      2377  TIP3      H2             34.6123862664        7.9039249008       30.1135551594  TIP3      2185            0.0000000000
     28876      2378  TIP3      OH2            22.6725911385        7.2943807379       20.8055080165  TIP3      2186            0.0000000000
     28877      2378  TIP3      H1             22.3841015369        8.1453149526       21.1700765468  TIP3      2186            0.0000000000
     28878      2378  TIP3      H2             22.0841181742        7.2035140268       20.0333768022  TIP3      2186            0.0000000000
     28879      2379  TIP3      OH2            35.9991432029       17.9586431653       31.1545013445  TIP3      2187            0.0000000000
     28880      2379  TIP3      H1             35.6500324774       18.5024041672       30.4286706396  TIP3      2187            0.0000000000
     28881      2379  TIP3      H2             36.8381921827       17.6941745057       30.7385645387  TIP3      2187            0.0000000000
     28882      2380  TIP3      OH2            22.9079925146        2.1388514100       29.9200400613  TIP3      2188            0.0000000000
     28883      2380  TIP3      H1             22.8341128924        2.0191366565       28.9504581723  TIP3      2188            0.0000000000
     28884      2380  TIP3      H2             22.5489617697        1.2825814666       30.2483710484  TIP3      2188            0.0000000000
     28885      2381  TIP3      OH2            21.5292971351       15.5074557736       25.3438081583  TIP3      2189            0.0000000000
     28886      2381  TIP3      H1             21.1398641088       15.3611619013       26.2150236429  TIP3      2189            0.0000000000
     28887      2381  TIP3      H2             22.1800577663       16.2019066931       25.4794427978  TIP3      2189            0.0000000000
     28888      2382  TIP3      OH2            20.7382452389       18.8008805470       37.2217082583  TIP3      2190            0.0000000000
     28889      2382  TIP3      H1             21.4518564923       18.6552868561       37.8865664926  TIP3      2190            0.0000000000
     28890      2382  TIP3      H2             20.3726663541       17.9074805446       37.1373695045  TIP3      2190            0.0000000000
     28891      2383  TIP3      OH2            25.8529591184       17.2658511722       38.9281912793  TIP3      2191            0.0000000000
     28892      2383  TIP3      H1             26.8103299627       17.1434692643       38.8136516054  TIP3      2191            0.0000000000
     28893      2383  TIP3      H2             25.5170094734       16.7721040575       38.1576792422  TIP3      2191            0.0000000000
     28894      2384  TIP3      OH2            32.0239592406       16.2538624767       37.5415223323  TIP3      2192            0.0000000000
     28895      2384  TIP3      H1             31.8149100703       15.3622429355       37.9003265265  TIP3      2192            0.0000000000
     28896      2384  TIP3      H2             32.9013444286       16.3593249486       37.9686172963  TIP3      2192            0.0000000000
     28897      2385  TIP3      OH2            20.7922930188       12.4800760741       37.9371900661  TIP3      2193            0.0000000000
     28898      2385  TIP3      H1             20.1969851614       11.7362743961       38.0837421514  TIP3      2193            0.0000000000
     28899      2385  TIP3      H2             20.4006655946       12.8782652833       37.1291785615  TIP3      2193            0.0000000000
     28900      2386  TIP3      OH2            27.5534452102       12.5757752559       36.8812825653  TIP3      2194            0.0000000000
     28901      2386  TIP3      H1             27.2338114640       13.1598803713       36.1555814773  TIP3      2194            0.0000000000
     28902      2386  TIP3      H2             27.6592884596       11.6935558657       36.4684989610  TIP3      2194            0.0000000000
     28903      2387  TIP3      OH2            33.1436092014       12.1055544808       34.9201139456  TIP3      2195            0.0000000000
     28904      2387  TIP3      H1             33.8944885643       12.7262944791       35.0286478980  TIP3      2195            0.0000000000
     28905      2387  TIP3      H2             32.4250131258       12.6827402935       35.2539375002  TIP3      2195            0.0000000000
     28906      2388  TIP3      OH2            22.1225768831        8.7696723585       37.3455737596  TIP3      2196            0.0000000000
     28907      2388  TIP3      H1             22.7976672919        8.2017766894       37.7552424633  TIP3      2196            0.0000000000
     28908      2388  TIP3      H2             22.2596394275        9.5912971012       37.8645338172  TIP3      2196            0.0000000000
     28909      2389  TIP3      OH2            26.7361393384       10.9001418911       22.7755568154  TIP3      2197            0.0000000000
     28910      2389  TIP3      H1             25.9486527681       10.4462973323       23.1130809925  TIP3      2197            0.0000000000
     28911      2389  TIP3      H2             27.0722173917       10.2500550979       22.1447107170  TIP3      2197            0.0000000000
     28912      2390  TIP3      OH2            25.7279680297        8.8603083296       35.0207012094  TIP3      2198            0.0000000000
     28913      2390  TIP3      H1             24.9774664988        9.4988420411       35.0400054716  TIP3      2198            0.0000000000
     28914      2390  TIP3      H2             26.2714472170        9.2727315067       34.3089949627  TIP3      2198            0.0000000000
     28915      2391  TIP3      OH2            30.7773131406       11.3173463429       38.4022108116  TIP3      2199            0.0000000000
     28916      2391  TIP3      H1             31.4617367425       11.0604514442       37.7571637220  TIP3      2199            0.0000000000
     28917      2391  TIP3      H2             30.7228497155       10.5147440840       38.9646590247  TIP3      2199            0.0000000000
     28918      2392  TIP3      OH2            26.3856088226        4.7141748813       36.1591610521  TIP3      2200            0.0000000000
     28919      2392  TIP3      H1             26.7052458444        4.0437325513       35.5310087900  TIP3      2200            0.0000000000
     28920      2392  TIP3      H2             27.2174993596        5.0629726567       36.5198865366  TIP3      2200            0.0000000000
     28921      2393  TIP3      OH2            26.8360152898        4.1364493424       33.4701707389  TIP3      2201            0.0000000000
     28922      2393  TIP3      H1             27.4294138631        4.6750473325       32.8888394949  TIP3      2201            0.0000000000
     28923      2393  TIP3      H2             26.0061965681        4.1139447846       32.9530271309  TIP3      2201            0.0000000000
     28924      2394  TIP3      OH2            27.6291863365       10.1893463008       33.5056280486  TIP3      2202            0.0000000000
     28925      2394  TIP3      H1             28.4936089723       10.5767805835       33.2888118983  TIP3      2202            0.0000000000
     28926      2394  TIP3      H2             27.0389163752       10.8467151365       33.0653519907  TIP3      2202            0.0000000000
     28927      2395  TIP3      OH2            32.7488067633        7.7628623087       38.7550663865  TIP3      2203            0.0000000000
     28928      2395  TIP3      H1             32.5828889237        7.0146931572       38.1574608119  TIP3      2203            0.0000000000
     28929      2395  TIP3      H2             33.6610778881        7.9428255344       38.4856919828  TIP3      2203            0.0000000000
     28930      2396  TIP3      OH2            33.3747913769       10.8656521974       37.2692642024  TIP3      2204            0.0000000000
     28931      2396  TIP3      H1             33.5112030616       11.2575962608       36.3823067514  TIP3      2204            0.0000000000
     28932      2396  TIP3      H2             34.1045815821       10.2245966577       37.2828170295  TIP3      2204            0.0000000000
     28933      2397  TIP3      OH2            24.8108251614        7.4018131537       38.0027088704  TIP3      2205            0.0000000000
     28934      2397  TIP3      H1             24.1829981255        6.8525075513       37.4999190461  TIP3      2205            0.0000000000
     28935      2397  TIP3      H2             25.3606575347        7.8133999394       37.3164032263  TIP3      2205            0.0000000000
     28936      2398  TIP3      OH2            27.6922216961        1.6287310083       33.4864796422  TIP3      2206            0.0000000000
     28937      2398  TIP3      H1             27.4156001679        2.5732691024       33.5100131859  TIP3      2206            0.0000000000
     28938      2398  TIP3      H2             26.8627081673        1.1799339271       33.2805488295  TIP3      2206            0.0000000000
     28939      2399  TIP3      OH2            28.6725109392        5.7522463261       37.6898947361  TIP3      2207            0.0000000000
     28940      2399  TIP3      H1             28.6382432981        6.1717182358       38.5715015208  TIP3      2207            0.0000000000
     28941      2399  TIP3      H2             28.6002516309        4.8364542896       37.9879718863  TIP3      2207            0.0000000000
     28942      2400  TIP3      OH2            31.6090712438        5.5545471867       36.9471209775  TIP3      2208            0.0000000000
     28943      2400  TIP3      H1             30.7326585397        5.2167181300       37.1910702583  TIP3      2208            0.0000000000
     28944      2400  TIP3      H2             32.1975602758        4.9395417291       37.4502887701  TIP3      2208            0.0000000000
     28945      2401  TIP3      OH2            33.1296596995        3.8346689347       38.2632598371  TIP3      2209            0.0000000000
     28946      2401  TIP3      H1             32.9781225379        2.8731977227       38.4110684548  TIP3      2209            0.0000000000
     28947      2401  TIP3      H2             32.8107404963        4.2351350302       39.1122118588  TIP3      2209            0.0000000000
     28948      2402  TIP3      OH2            22.7311767207        5.3229959536       37.8166975187  TIP3      2210            0.0000000000
     28949      2402  TIP3      H1             22.9637874534        4.4921678023       37.3676930518  TIP3      2210            0.0000000000
     28950      2402  TIP3      H2             22.7200782815        5.0409221524       38.7618089268  TIP3      2210            0.0000000000
     28951      2403  TIP3      OH2            27.2873061219        1.4189171109       36.1379155246  TIP3      2211            0.0000000000
     28952      2403  TIP3      H1             27.9542602029        0.7356491111       36.3181862309  TIP3      2211            0.0000000000
     28953      2403  TIP3      H2             27.2635547153        1.3390794328       35.1586143555  TIP3      2211            0.0000000000
     28954      2404  TIP3      OH2            27.7797390410        2.2814664080       38.9445886584  TIP3      2212            0.0000000000
     28955      2404  TIP3      H1             27.5802959738        1.9381091509       38.0516116062  TIP3      2212            0.0000000000
     28956      2404  TIP3      H2             27.4849606479        3.2052757214       38.8682545016  TIP3      2212            0.0000000000
     28957      2405  TIP3      OH2            19.6831800612       19.5996358687       26.3733047261  TIP3      2213            0.0000000000
     28958      2405  TIP3      H1             19.0694346389       19.0769235000       25.8185140584  TIP3      2213            0.0000000000
     28959      2405  TIP3      H2             20.0246267897       18.9093970469       26.9818606199  TIP3      2213            0.0000000000
     28960      2406  TIP3      OH2            20.6205169866       17.8355597402       28.1447510012  TIP3      2214            0.0000000000
     28961      2406  TIP3      H1             19.8521778261       17.2831393572       28.3808215121  TIP3      2214            0.0000000000
     28962      2406  TIP3      H2             20.7710182425       18.1938073665       29.0517049282  TIP3      2214            0.0000000000
     28963      2407  TIP3      OH2            35.5559227015       13.2522020512       38.4748903647  TIP3      2215            0.0000000000
     28964      2407  TIP3      H1             35.1572517211       13.6232090230       39.2858598357  TIP3      2215            0.0000000000
     28965      2407  TIP3      H2             35.9308295593       14.0308617574       38.0454825294  TIP3      2215            0.0000000000
     28966      2408  TIP3      OH2            36.1511394972       15.3659864982       33.2408234700  TIP3      2216            0.0000000000
     28967      2408  TIP3      H1             35.6497799543       16.0865841374       33.6488778617  TIP3      2216            0.0000000000
     28968      2408  TIP3      H2             35.7119071453       15.2872984386       32.3524681297  TIP3      2216            0.0000000000
     28969      2409  TIP3      OH2            35.4470500566        9.2065675413       27.0430396587  TIP3      2217            0.0000000000
     28970      2409  TIP3      H1             35.2238341419        8.4202706450       27.5525508941  TIP3      2217            0.0000000000
     28971      2409  TIP3      H2             36.0091826459        9.6961341686       27.6821747364  TIP3      2217            0.0000000000
     28972      2410  TIP3      OH2            20.4347034599       10.9945094279       30.6351480890  TIP3      2218            0.0000000000
     28973      2410  TIP3      H1             20.4464158022       10.7307203004       29.6858538040  TIP3      2218            0.0000000000
     28974      2410  TIP3      H2             21.3576061488       10.7148952459       30.8321441367  TIP3      2218            0.0000000000
     28975      2411  TIP3      OH2           -37.0337632425       10.3306169714       36.4998854496  TIP3      2219            0.0000000000
     28976      2411  TIP3      H1            -36.1094548774       10.2018948546       36.8176079082  TIP3      2219            0.0000000000
     28977      2411  TIP3      H2            -37.0223801622       11.2398918100       36.1689778042  TIP3      2219            0.0000000000
     28978      2412  TIP3      OH2            35.1700352638        6.0324948172       25.2259955581  TIP3      2220            0.0000000000
     28979      2412  TIP3      H1             35.5269895883        5.5645166858       26.0018719114  TIP3      2220            0.0000000000
     28980      2412  TIP3      H2             35.9465565641        6.0636432130       24.6589160183  TIP3      2220            0.0000000000
     28981      2413  TIP3      OH2            35.8239296361        6.2982015691       31.0096667910  TIP3      2221            0.0000000000
     28982      2413  TIP3      H1             36.6346103074        6.4409606162       30.4955309992  TIP3      2221            0.0000000000
     28983      2413  TIP3      H2             35.9967311459        6.8648246706       31.7906152957  TIP3      2221            0.0000000000
     28984      2414  TIP3      OH2            36.0839699823        7.3933568174       33.7576885613  TIP3      2222            0.0000000000
     28985      2414  TIP3      H1             35.2015079048        7.7569102115       33.9592337356  TIP3      2222            0.0000000000
     28986      2414  TIP3      H2             36.3932200484        8.0511087720       33.1093241171  TIP3      2222            0.0000000000
     28987      2415  TIP3      OH2            20.4097368610        5.6092273884       36.5046097167  TIP3      2223            0.0000000000
     28988      2415  TIP3      H1             21.1979434126        5.6225692876       37.0831956605  TIP3      2223            0.0000000000
     28989      2415  TIP3      H2             20.1407597867        4.6770139166       36.6253796761  TIP3      2223            0.0000000000
     28990      2416  TIP3      OH2            35.3344611370        2.6071120242       26.1703719800  TIP3      2224            0.0000000000
     28991      2416  TIP3      H1             35.9344155957        3.1253543476       25.5897736954  TIP3      2224            0.0000000000
     28992      2416  TIP3      H2             34.5718898555        2.4332373746       25.5700491057  TIP3      2224            0.0000000000
     28993      2417  TIP3      OH2            21.5267403595        4.4058644253       30.0576795489  TIP3      2225            0.0000000000
     28994      2417  TIP3      H1             21.9795553619        3.5328714808       30.1180987771  TIP3      2225            0.0000000000
     28995      2417  TIP3      H2             22.2733143917        5.0174808660       29.9160204418  TIP3      2225            0.0000000000
     28996      2418  TIP3      OH2            19.8470880205        7.5170108678       30.8106390863  TIP3      2226            0.0000000000
     28997      2418  TIP3      H1             20.2380510984        6.8343000883       30.2441480033  TIP3      2226            0.0000000000
     28998      2418  TIP3      H2             20.5415960301        8.1918759557       30.8433886241  TIP3      2226            0.0000000000
     28999      2419  TIP3      OH2            20.0838671441        3.6850997363       24.7681174788  TIP3      2227            0.0000000000
     29000      2419  TIP3      H1             19.1540401299        3.9218495161       24.9220315599  TIP3      2227            0.0000000000
     29001      2419  TIP3      H2             20.2598265670        4.1602516694       23.9353437858  TIP3      2227            0.0000000000
     29002      2420  TIP3      OH2            35.0989194008       18.2021064126       26.8603845348  TIP3      2228            0.0000000000
     29003      2420  TIP3      H1             35.1847110506       17.4141772653       26.2922550110  TIP3      2228            0.0000000000
     29004      2420  TIP3      H2             35.9192135830       18.1282731826       27.4099195488  TIP3      2228            0.0000000000
     29005      2421  TIP3      OH2            20.0157327119        2.2950186641       33.0372407298  TIP3      2229            0.0000000000
     29006      2421  TIP3      H1             19.3536416870        1.8785756771       33.6141416042  TIP3      2229            0.0000000000
     29007      2421  TIP3      H2             19.5585345830        3.0692469201       32.6821714790  TIP3      2229            0.0000000000
     29008      2422  TIP3      OH2            22.3149198654       15.4818990827       37.0983341612  TIP3      2230            0.0000000000
     29009      2422  TIP3      H1             21.5270080372       15.8155336754       36.6507733658  TIP3      2230            0.0000000000
     29010      2422  TIP3      H2             21.9825634808       15.3877305993       37.9907525662  TIP3      2230            0.0000000000
     29011      2423  TIP3      OH2            25.1605131763       17.2116079891       33.8900461169  TIP3      2231            0.0000000000
     29012      2423  TIP3      H1             25.2113693075       18.0763032965       33.4360279296  TIP3      2231            0.0000000000
     29013      2423  TIP3      H2             26.1006563607       16.9382938541       33.7968450088  TIP3      2231            0.0000000000
     29014      2424  TIP3      OH2            29.4189552506       18.2448883084       36.2315957424  TIP3      2232            0.0000000000
     29015      2424  TIP3      H1             29.4827726061       17.9549125902       37.1635208066  TIP3      2232            0.0000000000
     29016      2424  TIP3      H2             30.3603117902       18.3959020245       36.0314522160  TIP3      2232            0.0000000000
     29017      2425  TIP3      OH2            31.7787511235       19.7681717149       35.7011837721  TIP3      2233            0.0000000000
     29018      2425  TIP3      H1             32.5471195599       19.7221762836       35.1097509914  TIP3      2233            0.0000000000
     29019      2425  TIP3      H2             32.1510396904       19.9857681271       36.5732841588  TIP3      2233            0.0000000000
     29020      2426  TIP3      OH2            22.7688021688       19.9920872342       33.3059143386  TIP3      2234            0.0000000000
     29021      2426  TIP3      H1             21.9786461656       20.4632475558       32.9549153879  TIP3      2234            0.0000000000
     29022      2426  TIP3      H2             22.3598719230       19.6826678985       34.1249877650  TIP3      2234            0.0000000000
     29023      2427  TIP3      OH2            25.2285933832       19.5548854815       32.3268581657  TIP3      2235            0.0000000000
     29024      2427  TIP3      H1             24.3108170354       19.7068800663       32.6595465098  TIP3      2235            0.0000000000
     29025      2427  TIP3      H2             25.2665331626       20.2031401895       31.5975061705  TIP3      2235            0.0000000000
     29026      2428  TIP3      OH2            30.0814005064       18.9066348216       31.7084135300  TIP3      2236            0.0000000000
     29027      2428  TIP3      H1             29.5574110794       19.1182779742       30.9259889519  TIP3      2236            0.0000000000
     29028      2428  TIP3      H2             30.0377301809       19.7259127534       32.2506979401  TIP3      2236            0.0000000000
     29029      2429  TIP3      OH2            31.9423935741       17.7382631039       33.2361776880  TIP3      2237            0.0000000000
     29030      2429  TIP3      H1             31.1962798890       18.0008093127       32.6556997355  TIP3      2237            0.0000000000
     29031      2429  TIP3      H2             32.6108234973       18.3807340735       32.9339635217  TIP3      2237            0.0000000000
     29032      2430  TIP3      OH2            34.4654218878       19.2250368026       32.9388159712  TIP3      2238            0.0000000000
     29033      2430  TIP3      H1             35.1822068873       19.8492252107       33.1633898084  TIP3      2238            0.0000000000
     29034      2430  TIP3      H2             34.9734071932       18.5925893205       32.3671943846  TIP3      2238            0.0000000000
     29035      2431  TIP3      OH2            22.4424192281       18.5774739755       30.3859703481  TIP3      2239            0.0000000000
     29036      2431  TIP3      H1             22.1358798520       18.0240112554       31.1437156018  TIP3      2239            0.0000000000
     29037      2431  TIP3      H2             23.1722229029       18.0210522264       30.0369175561  TIP3      2239            0.0000000000
     29038      2432  TIP3      OH2            24.4841604462       17.2024263869       29.0678524647  TIP3      2240            0.0000000000
     29039      2432  TIP3      H1             24.3489921021       16.2888499081       29.4100175529  TIP3      2240            0.0000000000
     29040      2432  TIP3      H2             25.3569691398       17.4237757835       29.4689706055  TIP3      2240            0.0000000000
     29041      2433  TIP3      OH2            26.8651706613       17.2766224407       30.2654679837  TIP3      2241            0.0000000000
     29042      2433  TIP3      H1             27.0340879585       16.3395722521       30.0631145547  TIP3      2241            0.0000000000
     29043      2433  TIP3      H2             26.9143041248       17.2780363565       31.2386221496  TIP3      2241            0.0000000000
     29044      2434  TIP3      OH2            30.0323505349        3.1678049674       28.7765997480  TIP3      2242            0.0000000000
     29045      2434  TIP3      H1             29.2042645712        2.8506563369       29.1750702156  TIP3      2242            0.0000000000
     29046      2434  TIP3      H2             30.6550014399        2.4518660711       28.9791725986  TIP3      2242            0.0000000000
     29047      2435  TIP3      OH2            35.5915489390        1.3052782507       29.2778015345  TIP3      2243            0.0000000000
     29048      2435  TIP3      H1             35.7336291656        2.1281871767       28.7805294284  TIP3      2243            0.0000000000
     29049      2435  TIP3      H2             34.6144632056        1.3062565640       29.2515838500  TIP3      2243            0.0000000000
     29050      2436  TIP3      OH2            22.6288275159        1.9216145329       27.1958763596  TIP3      2244            0.0000000000
     29051      2436  TIP3      H1             21.7537037399        1.9835902107       26.7676491407  TIP3      2244            0.0000000000
     29052      2436  TIP3      H2             22.9197161771        1.0220723873       26.9369319720  TIP3      2244            0.0000000000
     29053      2437  TIP3      OH2            21.5527665655        1.6786208708       22.9050464315  TIP3      2245            0.0000000000
     29054      2437  TIP3      H1             21.9784561922        2.2366221014       22.2152114027  TIP3      2245            0.0000000000
     29055      2437  TIP3      H2             21.0582983519        2.3503414497       23.4046092245  TIP3      2245            0.0000000000
     29056      2438  TIP3      OH2            26.8636559610        1.3831552053       26.8478705960  TIP3      2246            0.0000000000
     29057      2438  TIP3      H1             27.5878043854        1.7305502481       26.3191071715  TIP3      2246            0.0000000000
     29058      2438  TIP3      H2             27.1926411029        1.5037647176       27.7491552090  TIP3      2246            0.0000000000
     29059      2439  TIP3      OH2            32.9326126086        1.7021251185       28.6814508162  TIP3      2247            0.0000000000
     29060      2439  TIP3      H1             33.0849787418        1.8380872549       27.7344000304  TIP3      2247            0.0000000000
     29061      2439  TIP3      H2             32.3861048196        0.8962931911       28.7072293113  TIP3      2247            0.0000000000
     29062      2440  TIP3      OH2            33.3966053929        2.0557134469       24.0803348377  TIP3      2248            0.0000000000
     29063      2440  TIP3      H1             32.7926688705        2.2438255622       23.3596188667  TIP3      2248            0.0000000000
     29064      2440  TIP3      H2             33.0218340771        1.2143990120       24.4272887285  TIP3      2248            0.0000000000
     29065      2441  TIP3      OH2            22.9978248178        3.3828258310       21.4401952849  TIP3      2249            0.0000000000
     29066      2441  TIP3      H1             23.4821982541        2.7404522754       20.9159685212  TIP3      2249            0.0000000000
     29067      2441  TIP3      H2             23.6512181249        3.5507147025       22.1490301998  TIP3      2249            0.0000000000
     29068      2442  TIP3      OH2            28.4105739735        4.1376658080       23.4849570447  TIP3      2250            0.0000000000
     29069      2442  TIP3      H1             28.6111009635        3.5954315219       24.2599236099  TIP3      2250            0.0000000000
     29070      2442  TIP3      H2             28.6738306125        5.0178144859       23.8137800726  TIP3      2250            0.0000000000
     29071      2443  TIP3      OH2            22.4275823226        2.4669766487       36.3783876962  TIP3      2251            0.0000000000
     29072      2443  TIP3      H1             21.8723130108        1.6731074668       36.3810073546  TIP3      2251            0.0000000000
     29073      2443  TIP3      H2             23.1085018970        2.2171193037       37.0496918035  TIP3      2251            0.0000000000
     29074      2444  TIP3      OH2            24.2151382991        1.7776567848       38.2627919525  TIP3      2252            0.0000000000
     29075      2444  TIP3      H1             25.0695547186        1.4121291498       37.9800952951  TIP3      2252            0.0000000000
     29076      2444  TIP3      H2             23.7749343756        0.9690852787       38.6173816931  TIP3      2252            0.0000000000
     29077      2445  TIP3      OH2            32.7800751967        1.2514608132       38.5785535468  TIP3      2253            0.0000000000
     29078      2445  TIP3      H1             32.8526697267        0.9642221588       39.5056101186  TIP3      2253            0.0000000000
     29079      2445  TIP3      H2             33.6458524057        0.9459189533       38.2228049902  TIP3      2253            0.0000000000
     29080      2446  TIP3      OH2            36.1624795377       17.0089484799       37.0856318378  TIP3      2254            0.0000000000
     29081      2446  TIP3      H1             35.9114694763       16.7084450244       36.1860911285  TIP3      2254            0.0000000000
     29082      2446  TIP3      H2             35.8030032667       17.9274171424       37.0509220946  TIP3      2254            0.0000000000
     29083      2447  TIP3      OH2           -25.0210065518       29.7929046792       27.0129484879  TIP3      2255            0.0000000000
     29084      2447  TIP3      H1            -25.0122647782       30.7601255637       27.1381193550  TIP3      2255            0.0000000000
     29085      2447  TIP3      H2            -25.6841035747       29.7026587656       26.3189577059  TIP3      2255            0.0000000000
     29086      2448  TIP3      OH2           -25.9158747299       28.8679613734       30.3817123929  TIP3      2256            0.0000000000
     29087      2448  TIP3      H1            -25.7241389312       28.3057028712       31.1681088715  TIP3      2256            0.0000000000
     29088      2448  TIP3      H2            -26.4131915591       28.2324748707       29.8262511853  TIP3      2256            0.0000000000
     29089      2449  TIP3      OH2           -33.7811028262       28.8619772305       31.5433949969  TIP3      2257            0.0000000000
     29090      2449  TIP3      H1            -33.8516684800       28.1261897972       32.1684620939  TIP3      2257            0.0000000000
     29091      2449  TIP3      H2            -33.2861458554       29.5090608082       32.0810837975  TIP3      2257            0.0000000000
     29092      2450  TIP3      OH2           -22.4958107884       31.9023180972       28.8677979670  TIP3      2258            0.0000000000
     29093      2450  TIP3      H1            -22.4691715004       31.3040922004       29.6299874899  TIP3      2258            0.0000000000
     29094      2450  TIP3      H2            -22.5228668411       32.7678978961       29.2960201895  TIP3      2258            0.0000000000
     29095      2451  TIP3      OH2           -32.8802402402       33.4258061184       30.1622465032  TIP3      2259            0.0000000000
     29096      2451  TIP3      H1            -33.3841926869       32.6009004817       30.1047956755  TIP3      2259            0.0000000000
     29097      2451  TIP3      H2            -31.9798927796       33.0536577412       30.1462797882  TIP3      2259            0.0000000000
     29098      2452  TIP3      OH2           -35.3576097597       27.0574876469       25.3406182938  TIP3      2260            0.0000000000
     29099      2452  TIP3      H1            -36.1778175892       27.3627821566       25.7919834985  TIP3      2260            0.0000000000
     29100      2452  TIP3      H2            -35.6616359292       26.8135516095       24.4334407078  TIP3      2260            0.0000000000
     29101      2453  TIP3      OH2           -35.6757858961       29.0406479723       28.2766134657  TIP3      2261            0.0000000000
     29102      2453  TIP3      H1            -35.6227149927       28.0894385458       28.0676307402  TIP3      2261            0.0000000000
     29103      2453  TIP3      H2            -35.5087659126       29.4856184146       27.4346489505  TIP3      2261            0.0000000000
     29104      2454  TIP3      OH2           -27.9140641114       31.4234104962       31.2775556773  TIP3      2262            0.0000000000
     29105      2454  TIP3      H1            -27.7002880704       31.0308107440       30.4217302067  TIP3      2262            0.0000000000
     29106      2454  TIP3      H2            -27.0042063114       31.6309407518       31.5801512412  TIP3      2262            0.0000000000
     29107      2455  TIP3      OH2           -19.2750341777       23.0865164726       30.9436070859  TIP3      2263            0.0000000000
     29108      2455  TIP3      H1            -19.1390760787       23.5883751581       31.7779654531  TIP3      2263            0.0000000000
     29109      2455  TIP3      H2            -18.3563117579       22.9837016384       30.6233425391  TIP3      2263            0.0000000000
     29110      2456  TIP3      OH2           -23.9579854464       25.9972928067       31.2264322245  TIP3      2264            0.0000000000
     29111      2456  TIP3      H1            -23.9254928566       25.0240576256       31.3270363376  TIP3      2264            0.0000000000
     29112      2456  TIP3      H2            -24.1380489462       26.0341833925       30.2678755992  TIP3      2264            0.0000000000
     29113      2457  TIP3      OH2           -31.5178596197       24.1415457617       28.3454516787  TIP3      2265            0.0000000000
     29114      2457  TIP3      H1            -31.0416473607       24.7176968152       27.7208289972  TIP3      2265            0.0000000000
     29115      2457  TIP3      H2            -31.8283226889       23.4585054872       27.7276502393  TIP3      2265            0.0000000000
     29116      2458  TIP3      OH2           -23.6835214945       24.3770304070       26.8405886495  TIP3      2266            0.0000000000
     29117      2458  TIP3      H1            -23.1656454990       23.9740263271       27.5734921981  TIP3      2266            0.0000000000
     29118      2458  TIP3      H2            -22.9775091093       24.8073778919       26.3168802601  TIP3      2266            0.0000000000
     29119      2459  TIP3      OH2           -34.8650547179       26.4449645946       28.7855391426  TIP3      2267            0.0000000000
     29120      2459  TIP3      H1            -34.6018653411       25.7318891271       29.3926486458  TIP3      2267            0.0000000000
     29121      2459  TIP3      H2            -34.5516967547       26.0891402784       27.9216691441  TIP3      2267            0.0000000000
     29122      2460  TIP3      OH2           -29.5855085404       27.8908228193       28.3949235967  TIP3      2268            0.0000000000
     29123      2460  TIP3      H1            -28.7314416541       27.5193102918       28.7121479128  TIP3      2268            0.0000000000
     29124      2460  TIP3      H2            -29.7782616125       27.2474993009       27.6891364341  TIP3      2268            0.0000000000
     29125      2461  TIP3      OH2           -18.9995252209       24.2694626716       33.4444895316  TIP3      2269            0.0000000000
     29126      2461  TIP3      H1            -19.3124820247       25.1171694857       33.0469273694  TIP3      2269            0.0000000000
     29127      2461  TIP3      H2            -18.5920756408       24.6211295447       34.2541448970  TIP3      2269            0.0000000000
     29128      2462  TIP3      OH2           -32.3237464878       23.0213782230       32.1875033994  TIP3      2270            0.0000000000
     29129      2462  TIP3      H1            -32.6325299712       23.5636548095       31.4328622508  TIP3      2270            0.0000000000
     29130      2462  TIP3      H2            -33.0711537462       23.1264064779       32.8147002059  TIP3      2270            0.0000000000
     29131      2463  TIP3      OH2           -25.5400149444       32.4178060940       25.9782880038  TIP3      2271            0.0000000000
     29132      2463  TIP3      H1            -24.9215225782       32.8180476088       25.3511949856  TIP3      2271            0.0000000000
     29133      2463  TIP3      H2            -26.1288994199       33.1695227752       26.1665521118  TIP3      2271            0.0000000000
     29134      2464  TIP3      OH2           -30.3581823688       30.6679770161       31.9419998173  TIP3      2272            0.0000000000
     29135      2464  TIP3      H1            -30.8020417602       31.4841762237       32.2780172938  TIP3      2272            0.0000000000
     29136      2464  TIP3      H2            -29.4773090001       31.0472197600       31.7145592211  TIP3      2272            0.0000000000
     29137      2465  TIP3      OH2           -21.9347278168       23.6592883511       28.8064341163  TIP3      2273            0.0000000000
     29138      2465  TIP3      H1            -21.7116023041       22.9793270308       29.4553792558  TIP3      2273            0.0000000000
     29139      2465  TIP3      H2            -21.0650685069       24.0636171722       28.6604473353  TIP3      2273            0.0000000000
     29140      2466  TIP3      OH2           -33.0057230294       25.0014944961       30.4403939662  TIP3      2274            0.0000000000
     29141      2466  TIP3      H1            -32.3824347654       25.5552448990       30.9737791802  TIP3      2274            0.0000000000
     29142      2466  TIP3      H2            -32.4262077299       24.7053452064       29.6942343449  TIP3      2274            0.0000000000
     29143      2467  TIP3      OH2           -31.3268195068       32.8442950630       33.1128957612  TIP3      2275            0.0000000000
     29144      2467  TIP3      H1            -31.6936699219       33.6786776112       32.7869028743  TIP3      2275            0.0000000000
     29145      2467  TIP3      H2            -31.9811013168       32.5697827556       33.8012546094  TIP3      2275            0.0000000000
     29146      2468  TIP3      OH2           -34.9118450844       32.9318329164       23.7936042913  TIP3      2276            0.0000000000
     29147      2468  TIP3      H1            -35.7819667376       32.9693003666       23.3786345218  TIP3      2276            0.0000000000
     29148      2468  TIP3      H2            -35.0721461896       33.1895369701       24.7244235703  TIP3      2276            0.0000000000
     29149      2469  TIP3      OH2           -21.6757895918       34.1244828148       31.1851214929  TIP3      2277            0.0000000000
     29150      2469  TIP3      H1            -22.6181004307       34.3581246177       31.3240884933  TIP3      2277            0.0000000000
     29151      2469  TIP3      H2            -21.3952412477       34.8284674473       30.5867044112  TIP3      2277            0.0000000000
     29152      2470  TIP3      OH2           -22.0394415561       22.6325682607       32.1792767937  TIP3      2278            0.0000000000
     29153      2470  TIP3      H1            -22.6865136544       23.1898427306       31.7053926123  TIP3      2278            0.0000000000
     29154      2470  TIP3      H2            -21.1994912331       22.8099644890       31.7223169422  TIP3      2278            0.0000000000
     29155      2471  TIP3      OH2           -28.9919720234       20.4840983404       29.5440910381  TIP3      2279            0.0000000000
     29156      2471  TIP3      H1            -29.2987930792       19.5950925632       29.7678376208  TIP3      2279            0.0000000000
     29157      2471  TIP3      H2            -29.8161269310       20.9809177504       29.8176998552  TIP3      2279            0.0000000000
     29158      2472  TIP3      OH2           -23.6026276174       35.6625362486       26.8611067648  TIP3      2280            0.0000000000
     29159      2472  TIP3      H1            -23.2630895933       34.7971701799       26.5376294878  TIP3      2280            0.0000000000
     29160      2472  TIP3      H2            -22.7567842440       35.9826137097       27.2180468249  TIP3      2280            0.0000000000
     29161      2473  TIP3      OH2           -22.4182879057       33.3162620355       26.2061362161  TIP3      2281            0.0000000000
     29162      2473  TIP3      H1            -22.2028751939       32.7443223806       25.4423124346  TIP3      2281            0.0000000000
     29163      2473  TIP3      H2            -22.5019353629       32.6554565053       26.9139613495  TIP3      2281            0.0000000000
     29164      2474  TIP3      OH2           -21.0047914671       32.1560039247       34.6920675010  TIP3      2282            0.0000000000
     29165      2474  TIP3      H1            -20.7233338773       31.4790564504       34.0340547114  TIP3      2282            0.0000000000
     29166      2474  TIP3      H2            -20.6894420014       32.9667718788       34.2370154641  TIP3      2282            0.0000000000
     29167      2475  TIP3      OH2           -25.9668261211       29.0765140894       24.3178854756  TIP3      2283            0.0000000000
     29168      2475  TIP3      H1            -26.7315582796       29.3459911058       23.8004677383  TIP3      2283            0.0000000000
     29169      2475  TIP3      H2            -25.4259555276       29.8860134107       24.2862761037  TIP3      2283            0.0000000000
     29170      2476  TIP3      OH2           -18.7122872302       28.7598200926       32.5252377208  TIP3      2284            0.0000000000
     29171      2476  TIP3      H1            -19.3663603592       29.4886152088       32.5788695913  TIP3      2284            0.0000000000
     29172      2476  TIP3      H2            -18.1640066892       29.0580787257       31.7722460607  TIP3      2284            0.0000000000
     29173      2477  TIP3      OH2           -22.7504577391       28.8255400560       25.8320574569  TIP3      2285            0.0000000000
     29174      2477  TIP3      H1            -23.3477055956       29.1702886228       26.5330794907  TIP3      2285            0.0000000000
     29175      2477  TIP3      H2            -21.9351861357       28.6786971145       26.3438286409  TIP3      2285            0.0000000000
     29176      2478  TIP3      OH2           -22.6898847541       27.7090164266       34.2669619562  TIP3      2286            0.0000000000
     29177      2478  TIP3      H1            -22.8464901626       28.5320313016       34.7431263094  TIP3      2286            0.0000000000
     29178      2478  TIP3      H2            -23.4171955454       27.7311511770       33.6199546043  TIP3      2286            0.0000000000
     29179      2479  TIP3      OH2           -31.1615776357       29.7463703345       27.2693451666  TIP3      2287            0.0000000000
     29180      2479  TIP3      H1            -31.2895416707       29.4544444088       26.3435960690  TIP3      2287            0.0000000000
     29181      2479  TIP3      H2            -30.4081094329       29.1970809932       27.5533030716  TIP3      2287            0.0000000000
     29182      2480  TIP3      OH2           -30.0042950940       33.2239811567       29.8955620264  TIP3      2288            0.0000000000
     29183      2480  TIP3      H1            -29.8598746797       33.2165071648       28.9276626869  TIP3      2288            0.0000000000
     29184      2480  TIP3      H2            -29.2204919323       32.7506950417       30.2339903802  TIP3      2288            0.0000000000
     29185      2481  TIP3      OH2           -30.9302655999       28.4651992476       30.6805599121  TIP3      2289            0.0000000000
     29186      2481  TIP3      H1            -30.2214690363       28.6179676762       30.0224259307  TIP3      2289            0.0000000000
     29187      2481  TIP3      H2            -30.7999872532       29.2454917080       31.2759465212  TIP3      2289            0.0000000000
     29188      2482  TIP3      OH2           -24.3600333333       34.6518152773       31.6228792695  TIP3      2290            0.0000000000
     29189      2482  TIP3      H1            -25.0886369067       35.2666068772       31.7028345658  TIP3      2290            0.0000000000
     29190      2482  TIP3      H2            -24.6538375814       33.8969656196       32.1560881345  TIP3      2290            0.0000000000
     29191      2483  TIP3      OH2           -29.7128793846       33.2518147936       35.2495951864  TIP3      2291            0.0000000000
     29192      2483  TIP3      H1            -29.7896275752       34.1983519892       35.0477367460  TIP3      2291            0.0000000000
     29193      2483  TIP3      H2            -30.0073141349       32.8825762220       34.3914918102  TIP3      2291            0.0000000000
     29194      2484  TIP3      OH2           -32.8386803193       29.4783800847       34.6575608348  TIP3      2292            0.0000000000
     29195      2484  TIP3      H1            -32.9445200712       29.8671936230       35.5522430025  TIP3      2292            0.0000000000
     29196      2484  TIP3      H2            -33.6260657512       28.8994267744       34.6450895832  TIP3      2292            0.0000000000
     29197      2485  TIP3      OH2           -26.3842507754       35.4827901471       26.0386273901  TIP3      2293            0.0000000000
     29198      2485  TIP3      H1            -25.4178651895       35.5368019590       26.1319698411  TIP3      2293            0.0000000000
     29199      2485  TIP3      H2            -26.6108222567       36.4284283150       25.9955827956  TIP3      2293            0.0000000000
     29200      2486  TIP3      OH2           -31.9529653110       35.5481105759       36.2349206554  TIP3      2294            0.0000000000
     29201      2486  TIP3      H1            -31.7335306639       35.7589091558       35.2931057480  TIP3      2294            0.0000000000
     29202      2486  TIP3      H2            -32.9162031237       35.6777311556       36.1892451026  TIP3      2294            0.0000000000
     29203      2487  TIP3      OH2           -20.3767633547       19.6358126938       23.4106707653  TIP3      2295            0.0000000000
     29204      2487  TIP3      H1            -21.2687638636       20.0288295564       23.4462422959  TIP3      2295            0.0000000000
     29205      2487  TIP3      H2            -19.9771233260       20.1164104035       22.6700048307  TIP3      2295            0.0000000000
     29206      2488  TIP3      OH2           -31.9844010052       28.9454087442       24.7800602115  TIP3      2296            0.0000000000
     29207      2488  TIP3      H1            -32.7993485067       29.4773998517       24.7970546293  TIP3      2296            0.0000000000
     29208      2488  TIP3      H2            -32.3162022871       28.1000371761       24.4370449421  TIP3      2296            0.0000000000
     29209      2489  TIP3      OH2           -35.4254449547       31.5412707466       33.5144112898  TIP3      2297            0.0000000000
     29210      2489  TIP3      H1            -35.9632404902       31.4168227394       32.7277578510  TIP3      2297            0.0000000000
     29211      2489  TIP3      H2            -35.3806321869       30.6141663358       33.7999294284  TIP3      2297            0.0000000000
     29212      2490  TIP3      OH2           -35.8302970699       34.8485261230       29.6888546241  TIP3      2298            0.0000000000
     29213      2490  TIP3      H1            -35.2229724953       34.0929362532       29.6791113802  TIP3      2298            0.0000000000
     29214      2490  TIP3      H2            -35.7452957837       35.1394979985       30.6056796896  TIP3      2298            0.0000000000
     29215      2491  TIP3      OH2           -18.3997226813       35.1794583523       36.2958187450  TIP3      2299            0.0000000000
     29216      2491  TIP3      H1            -18.2484235050       34.2267637268       36.1426021101  TIP3      2299            0.0000000000
     29217      2491  TIP3      H2            -19.3006436378       35.1606485421       36.6946178851  TIP3      2299            0.0000000000
     29218      2492  TIP3      OH2           -27.0621946620       34.3231410375       35.0008645228  TIP3      2300            0.0000000000
     29219      2492  TIP3      H1            -27.0684399259       34.5066732542       35.9549867311  TIP3      2300            0.0000000000
     29220      2492  TIP3      H2            -27.6965157499       33.5727385423       34.9404326471  TIP3      2300            0.0000000000
     29221      2493  TIP3      OH2           -21.2668424582       26.0802531430       36.5362354103  TIP3      2301            0.0000000000
     29222      2493  TIP3      H1            -21.8171722530       26.5120128941       35.8508196500  TIP3      2301            0.0000000000
     29223      2493  TIP3      H2            -21.3420401480       25.1529754123       36.2494488568  TIP3      2301            0.0000000000
     29224      2494  TIP3      OH2           -33.4365693258       32.7310180104       34.8347605445  TIP3      2302            0.0000000000
     29225      2494  TIP3      H1            -33.8105942952       32.2401193698       35.5801582256  TIP3      2302            0.0000000000
     29226      2494  TIP3      H2            -34.2444421075       32.7152730497       34.2813941565  TIP3      2302            0.0000000000
     29227      2495  TIP3      OH2           -31.2417270950       21.5251281061       30.3245554112  TIP3      2303            0.0000000000
     29228      2495  TIP3      H1            -32.1392324311       21.2431579143       30.0509904768  TIP3      2303            0.0000000000
     29229      2495  TIP3      H2            -31.4557774000       22.0577613049       31.1176999062  TIP3      2303            0.0000000000
     29230      2496  TIP3      OH2           -26.5819436242       20.9887044331       33.6801210335  TIP3      2304            0.0000000000
     29231      2496  TIP3      H1            -26.4553448174       20.9583723001       34.6352145128  TIP3      2304            0.0000000000
     29232      2496  TIP3      H2            -27.5660906918       20.9264787646       33.6303279473  TIP3      2304            0.0000000000
     29233      2497  TIP3      OH2           -23.7973054273       24.9268537349       34.8322973035  TIP3      2305            0.0000000000
     29234      2497  TIP3      H1            -24.3489277774       24.6296058594       35.6045776423  TIP3      2305            0.0000000000
     29235      2497  TIP3      H2            -24.2042143745       25.7864912306       34.6569339831  TIP3      2305            0.0000000000
     29236      2498  TIP3      OH2           -26.6265433159       23.2075735770       21.4592500111  TIP3      2306            0.0000000000
     29237      2498  TIP3      H1            -27.3287293036       23.0678780728       22.1287771202  TIP3      2306            0.0000000000
     29238      2498  TIP3      H2            -26.1540988947       22.3631030558       21.3957833146  TIP3      2306            0.0000000000
     29239      2499  TIP3      OH2           -31.0241527981       26.0436611025       31.9351928724  TIP3      2307            0.0000000000
     29240      2499  TIP3      H1            -31.6906207607       26.2217659866       32.6285356375  TIP3      2307            0.0000000000
     29241      2499  TIP3      H2            -30.7751809323       26.9646015664       31.7047397914  TIP3      2307            0.0000000000
     29242      2500  TIP3      OH2           -30.9423529307       26.2758880435       26.6533936428  TIP3      2308            0.0000000000
     29243      2500  TIP3      H1            -31.7850437997       25.9001413270       26.3247648486  TIP3      2308            0.0000000000
     29244      2500  TIP3      H2            -30.4112991961       26.1210694905       25.8311666811  TIP3      2308            0.0000000000
     29245      2501  TIP3      OH2           -25.4510128088       26.3015401817       24.7569852638  TIP3      2309            0.0000000000
     29246      2501  TIP3      H1            -25.4616397658       27.2783719920       24.7087096477  TIP3      2309            0.0000000000
     29247      2501  TIP3      H2            -24.5035617028       26.1069093206       24.7731978011  TIP3      2309            0.0000000000
     29248      2502  TIP3      OH2           -26.5747429365       27.1469368851       36.9314946469  TIP3      2310            0.0000000000
     29249      2502  TIP3      H1            -27.0422136245       26.3406566834       37.2457319618  TIP3      2310            0.0000000000
     29250      2502  TIP3      H2            -25.7882653862       27.1470799378       37.5127229784  TIP3      2310            0.0000000000
     29251      2503  TIP3      OH2           -24.4908232893       26.7045842171       28.4765543244  TIP3      2311            0.0000000000
     29252      2503  TIP3      H1            -24.6770283321       27.4733403918       27.9082856937  TIP3      2311            0.0000000000
     29253      2503  TIP3      H2            -24.4591583452       25.9638536077       27.8460166736  TIP3      2311            0.0000000000
     29254      2504  TIP3      OH2           -33.6776515807       26.2173700810       33.1782321048  TIP3      2312            0.0000000000
     29255      2504  TIP3      H1            -33.4608499816       26.4138578313       34.0994427044  TIP3      2312            0.0000000000
     29256      2504  TIP3      H2            -33.9958940134       25.2930676673       33.2258120191  TIP3      2312            0.0000000000
     29257      2505  TIP3      OH2           -36.0635746016       23.1929852147       27.1578071961  TIP3      2313            0.0000000000
     29258      2505  TIP3      H1            -35.8960505670       23.3721728783       28.1077802616  TIP3      2313            0.0000000000
     29259      2505  TIP3      H2            -35.4137025728       22.5006411961       26.9980110235  TIP3      2313            0.0000000000
     29260      2506  TIP3      OH2           -36.2987878646       25.2082621561       23.4334464158  TIP3      2314            0.0000000000
     29261      2506  TIP3      H1            -35.5437281738       24.7201397662       23.0670165617  TIP3      2314            0.0000000000
     29262      2506  TIP3      H2            -36.3901447825       25.8162187155       22.6512710025  TIP3      2314            0.0000000000
     29263      2507  TIP3      OH2           -25.3407159576       27.7373211554       32.7536221338  TIP3      2315            0.0000000000
     29264      2507  TIP3      H1            -24.8060173073       27.0200244899       32.3433101891  TIP3      2315            0.0000000000
     29265      2507  TIP3      H2            -25.9840275346       27.2391695874       33.3147710482  TIP3      2315            0.0000000000
     29266      2508  TIP3      OH2           -28.0175906863       24.1959285958       27.8215790685  TIP3      2316            0.0000000000
     29267      2508  TIP3      H1            -28.8911815998       23.9397977304       28.1381079820  TIP3      2316            0.0000000000
     29268      2508  TIP3      H2            -27.4852560223       23.4339880059       28.1343507547  TIP3      2316            0.0000000000
     29269      2509  TIP3      OH2           -33.5752692863       25.4694752153       26.5612059053  TIP3      2317            0.0000000000
     29270      2509  TIP3      H1            -34.1396466282       25.8468493896       25.8515539991  TIP3      2317            0.0000000000
     29271      2509  TIP3      H2            -33.3543102410       24.5779620292       26.1973668662  TIP3      2317            0.0000000000
     29272      2510  TIP3      OH2           -30.2801332793       25.7279166002       24.1481907483  TIP3      2318            0.0000000000
     29273      2510  TIP3      H1            -29.3889063693       25.3703836736       23.9934244277  TIP3      2318            0.0000000000
     29274      2510  TIP3      H2            -30.4572886553       26.1380875762       23.2608997764  TIP3      2318            0.0000000000
     29275      2511  TIP3      OH2           -24.3230299075       23.2838009680       30.8605060455  TIP3      2319            0.0000000000
     29276      2511  TIP3      H1            -25.1377645911       23.2152741974       31.3869724193  TIP3      2319            0.0000000000
     29277      2511  TIP3      H2            -24.3684803750       22.5332258271       30.2463413048  TIP3      2319            0.0000000000
     29278      2512  TIP3      OH2           -33.0785219705       30.7399303734       37.0816812640  TIP3      2320            0.0000000000
     29279      2512  TIP3      H1            -32.6376083590       30.6520307691       37.9411127981  TIP3      2320            0.0000000000
     29280      2512  TIP3      H2            -34.0101570041       30.8065750619       37.4062537758  TIP3      2320            0.0000000000
     29281      2513  TIP3      OH2           -27.3665869489       26.6393042283       29.3123922251  TIP3      2321            0.0000000000
     29282      2513  TIP3      H1            -26.6501519861       26.3204691093       28.7521460287  TIP3      2321            0.0000000000
     29283      2513  TIP3      H2            -27.7394582915       25.8000268343       29.6328673553  TIP3      2321            0.0000000000
     29284      2514  TIP3      OH2           -33.0614225686       22.9182216577       26.0774656024  TIP3      2322            0.0000000000
     29285      2514  TIP3      H1            -33.3296541636       22.2078863882       26.7003713272  TIP3      2322            0.0000000000
     29286      2514  TIP3      H2            -32.6090668505       22.3834462840       25.4089375321  TIP3      2322            0.0000000000
     29287      2515  TIP3      OH2           -28.6068203496       24.8590264606       31.6911645991  TIP3      2323            0.0000000000
     29288      2515  TIP3      H1            -29.4618543630       25.3240905168       31.6916988111  TIP3      2323            0.0000000000
     29289      2515  TIP3      H2            -28.1108624231       25.3611877870       32.3530821978  TIP3      2323            0.0000000000
     29290      2516  TIP3      OH2           -20.5286929598       30.7227935391       32.5382178474  TIP3      2324            0.0000000000
     29291      2516  TIP3      H1            -20.0822385026       31.2240972893       31.8081919261  TIP3      2324            0.0000000000
     29292      2516  TIP3      H2            -21.4426318556       30.7238212027       32.2073771365  TIP3      2324            0.0000000000
     29293      2517  TIP3      OH2           -27.1704038434       31.5785260795       35.0538727964  TIP3      2325            0.0000000000
     29294      2517  TIP3      H1            -26.8072017858       30.7852227186       35.4665722841  TIP3      2325            0.0000000000
     29295      2517  TIP3      H2            -26.3843653196       32.1390578393       34.9875882171  TIP3      2325            0.0000000000
     29296      2518  TIP3      OH2           -32.9424541077       30.8032433935       29.2216527402  TIP3      2326            0.0000000000
     29297      2518  TIP3      H1            -32.3628175571       30.7375298514       28.4382492398  TIP3      2326            0.0000000000
     29298      2518  TIP3      H2            -32.5870206102       30.1354956635       29.8252395022  TIP3      2326            0.0000000000
     29299      2519  TIP3      OH2           -35.5127856867       28.7146417777       34.2971138039  TIP3      2327            0.0000000000
     29300      2519  TIP3      H1            -36.0104347288       28.3081414248       35.0344216940  TIP3      2327            0.0000000000
     29301      2519  TIP3      H2            -35.8732253394       28.2365303762       33.5217192768  TIP3      2327            0.0000000000
     29302      2520  TIP3      OH2           -29.0584808830       28.3796677225       36.4667356853  TIP3      2328            0.0000000000
     29303      2520  TIP3      H1            -29.5493034513       27.5654837610       36.2710766608  TIP3      2328            0.0000000000
     29304      2520  TIP3      H2            -28.1381799218       28.0383677036       36.4808781719  TIP3      2328            0.0000000000
     29305      2521  TIP3      OH2           -24.3606735019       34.3021307709       35.0027660587  TIP3      2329            0.0000000000
     29306      2521  TIP3      H1            -25.2959936143       34.4976542209       34.7889037517  TIP3      2329            0.0000000000
     29307      2521  TIP3      H2            -24.4200542898       34.3936198501       35.9753579306  TIP3      2329            0.0000000000
     29308      2522  TIP3      OH2           -18.5369419814       32.2190910513       36.0581459282  TIP3      2330            0.0000000000
     29309      2522  TIP3      H1            -19.5108473986       32.1949142030       35.9289493675  TIP3      2330            0.0000000000
     29310      2522  TIP3      H2            -18.2029535450       32.0742427715       35.1426374076  TIP3      2330            0.0000000000
     29311      2523  TIP3      OH2           -20.4554408286       34.2841430623       23.5497453653  TIP3      2331            0.0000000000
     29312      2523  TIP3      H1            -20.4902303591       33.3230891815       23.5470249891  TIP3      2331            0.0000000000
     29313      2523  TIP3      H2            -19.9313757309       34.4691646047       22.7521280549  TIP3      2331            0.0000000000
     29314      2524  TIP3      OH2           -23.1315629609       29.8409307384       30.9716511606  TIP3      2332            0.0000000000
     29315      2524  TIP3      H1            -24.0091903730       29.6943390134       30.5736631273  TIP3      2332            0.0000000000
     29316      2524  TIP3      H2            -22.6054709933       29.2337398208       30.4187916275  TIP3      2332            0.0000000000
     29317      2525  TIP3      OH2           -30.4740332282       34.1765632039       27.1756471766  TIP3      2333            0.0000000000
     29318      2525  TIP3      H1            -30.3214264489       34.8804038937       26.5176957462  TIP3      2333            0.0000000000
     29319      2525  TIP3      H2            -31.3258892150       33.8411553132       26.8616808782  TIP3      2333            0.0000000000
     29320      2526  TIP3      OH2           -28.4833723135       35.4307376126       32.8485539588  TIP3      2334            0.0000000000
     29321      2526  TIP3      H1            -28.5253465267       36.3361169092       33.2240949986  TIP3      2334            0.0000000000
     29322      2526  TIP3      H2            -27.7223294824       35.0743388923       33.3399627538  TIP3      2334            0.0000000000
     29323      2527  TIP3      OH2           -30.6769900211      -37.0026626847       25.5485376442  TIP3      2335            0.0000000000
     29324      2527  TIP3      H1            -31.5287821283      -36.6435576797       25.8298258805  TIP3      2335            0.0000000000
     29325      2527  TIP3      H2            -30.0667711100      -36.3498117433       25.9763793068  TIP3      2335            0.0000000000
     29326      2528  TIP3      OH2           -25.4889295289       31.6661795858       32.4747539849  TIP3      2336            0.0000000000
     29327      2528  TIP3      H1            -25.9382868897       31.3650545335       33.2758465878  TIP3      2336            0.0000000000
     29328      2528  TIP3      H2            -25.1224801256       30.8480770417       32.1023824289  TIP3      2336            0.0000000000
     29329      2529  TIP3      OH2           -22.6555693693       36.3328900344       34.9822042793  TIP3      2337            0.0000000000
     29330      2529  TIP3      H1            -23.3492647472       35.6766617960       34.7277532524  TIP3      2337            0.0000000000
     29331      2529  TIP3      H2            -22.7205423923       37.0061146863       34.2847748454  TIP3      2337            0.0000000000
     29332      2530  TIP3      OH2           -34.2451316299       23.6735115135       34.1571644211  TIP3      2338            0.0000000000
     29333      2530  TIP3      H1            -34.4834967312       24.2216479362       34.9283460896  TIP3      2338            0.0000000000
     29334      2530  TIP3      H2            -34.1979430591       22.7854812122       34.5479379582  TIP3      2338            0.0000000000
     29335      2531  TIP3      OH2           -22.4792092011       31.3063738828       24.1929541112  TIP3      2339            0.0000000000
     29336      2531  TIP3      H1            -22.4002923797       30.4642770107       24.6695650029  TIP3      2339            0.0000000000
     29337      2531  TIP3      H2            -21.7732887667       31.2419127292       23.5274762065  TIP3      2339            0.0000000000
     29338      2532  TIP3      OH2           -34.4723531440       35.1162271435       33.0490085675  TIP3      2340            0.0000000000
     29339      2532  TIP3      H1            -34.5299556296       34.1484098261       33.0073246656  TIP3      2340            0.0000000000
     29340      2532  TIP3      H2            -35.3949855597       35.3686033293       33.2729179364  TIP3      2340            0.0000000000
     29341      2533  TIP3      OH2           -25.8035797252       23.7255480342       33.3900277891  TIP3      2341            0.0000000000
     29342      2533  TIP3      H1            -24.8817035241       23.8574921112       33.6752633475  TIP3      2341            0.0000000000
     29343      2533  TIP3      H2            -26.0052572817       22.8052516420       33.6236088948  TIP3      2341            0.0000000000
     29344      2534  TIP3      OH2           -24.9581155560       23.1756892710       24.8996694549  TIP3      2342            0.0000000000
     29345      2534  TIP3      H1            -25.0370572908       24.0638620012       24.5175725262  TIP3      2342            0.0000000000
     29346      2534  TIP3      H2            -24.3684976366       23.3630479340       25.6664082786  TIP3      2342            0.0000000000
     29347      2535  TIP3      OH2           -27.6908438904       24.8112869528       25.0642831336  TIP3      2343            0.0000000000
     29348      2535  TIP3      H1            -26.9264852865       25.4278474046       24.9845617010  TIP3      2343            0.0000000000
     29349      2535  TIP3      H2            -27.7394541235       24.6320169286       26.0257653902  TIP3      2343            0.0000000000
     29350      2536  TIP3      OH2           -26.7488247304       26.0719389727       34.2545985646  TIP3      2344            0.0000000000
     29351      2536  TIP3      H1            -26.6650596997       26.1622210181       35.2238097899  TIP3      2344            0.0000000000
     29352      2536  TIP3      H2            -26.4936043200       25.1425390081       34.0652030856  TIP3      2344            0.0000000000
     29353      2537  TIP3      OH2           -27.0773324217       21.7521698273       25.8555663453  TIP3      2345            0.0000000000
     29354      2537  TIP3      H1            -27.1301938802       21.9557689891       26.8194279935  TIP3      2345            0.0000000000
     29355      2537  TIP3      H2            -26.3401451929       22.3615437293       25.6086725681  TIP3      2345            0.0000000000
     29356      2538  TIP3      OH2           -29.8069945746      -37.1118859283       22.8651948067  TIP3      2346            0.0000000000
     29357      2538  TIP3      H1            -29.4520316245      -36.2081449730       22.8843220971  TIP3      2346            0.0000000000
     29358      2538  TIP3      H2            -30.2169509526      -37.1817140174       23.7465508734  TIP3      2346            0.0000000000
     29359      2539  TIP3      OH2           -21.1171591809       23.7398681123       35.1378742364  TIP3      2347            0.0000000000
     29360      2539  TIP3      H1            -22.0338323983       23.9931650570       34.8951105840  TIP3      2347            0.0000000000
     29361      2539  TIP3      H2            -20.6369298129       23.8916069353       34.3033916999  TIP3      2347            0.0000000000
     29362      2540  TIP3      OH2           -22.0274877368       27.8076311715       29.0561596800  TIP3      2348            0.0000000000
     29363      2540  TIP3      H1            -22.8107168841       27.2321698978       29.1637255461  TIP3      2348            0.0000000000
     29364      2540  TIP3      H2            -21.3645419674       27.3271815033       29.6086821902  TIP3      2348            0.0000000000
     29365      2541  TIP3      OH2           -32.7508714496       33.6679237771       21.6814605744  TIP3      2349            0.0000000000
     29366      2541  TIP3      H1            -32.5359315049       34.1129874491       22.5145443662  TIP3      2349            0.0000000000
     29367      2541  TIP3      H2            -32.2394263676       32.8687728021       21.7914041440  TIP3      2349            0.0000000000
     29368      2542  TIP3      OH2           -35.4670913244       26.2285441765       21.1832656504  TIP3      2350            0.0000000000
     29369      2542  TIP3      H1            -34.7095039288       25.7487286131       20.8331240045  TIP3      2350            0.0000000000
     29370      2542  TIP3      H2            -36.1299367547       26.0338628070       20.4690573322  TIP3      2350            0.0000000000
     29371      2543  TIP3      OH2           -33.7041327802       20.8056566391       29.6636868990  TIP3      2351            0.0000000000
     29372      2543  TIP3      H1            -33.8236098516       20.6161310659       28.7105059347  TIP3      2351            0.0000000000
     29373      2543  TIP3      H2            -34.0279705691       19.9496790078       30.0369313321  TIP3      2351            0.0000000000
     29374      2544  TIP3      OH2           -34.5064882009       34.4978160712       26.0782537260  TIP3      2352            0.0000000000
     29375      2544  TIP3      H1            -34.9257144101       34.5033381139       26.9471513397  TIP3      2352            0.0000000000
     29376      2544  TIP3      H2            -34.5714389468       35.4350053330       25.8061470932  TIP3      2352            0.0000000000
     29377      2545  TIP3      OH2           -30.5600046187       35.5722890593       39.1069074692  TIP3      2353            0.0000000000
     29378      2545  TIP3      H1            -29.6825317213       35.9750164310       39.0739842778  TIP3      2353            0.0000000000
     29379      2545  TIP3      H2            -30.8287317310       35.6477591912       38.1791647411  TIP3      2353            0.0000000000
     29380      2546  TIP3      OH2           -24.7754517323       34.7473163962       37.6474029376  TIP3      2354            0.0000000000
     29381      2546  TIP3      H1            -25.0427329733       33.9688747572       38.1967567104  TIP3      2354            0.0000000000
     29382      2546  TIP3      H2            -23.8453822717       34.8076244119       37.9654165773  TIP3      2354            0.0000000000
     29383      2547  TIP3      OH2           -35.4785319941       31.1404092011       37.9738414179  TIP3      2355            0.0000000000
     29384      2547  TIP3      H1            -36.0762477212       30.4159157636       37.7273668593  TIP3      2355            0.0000000000
     29385      2547  TIP3      H2            -36.1371344072       31.8593571631       38.0872940811  TIP3      2355            0.0000000000
     29386      2548  TIP3      OH2           -28.9535594639       30.9665355386       37.1750040462  TIP3      2356            0.0000000000
     29387      2548  TIP3      H1            -28.6931992499       31.5500157090       36.4346213070  TIP3      2356            0.0000000000
     29388      2548  TIP3      H2            -28.9338619008       30.0813108907       36.7266679158  TIP3      2356            0.0000000000
     29389      2549  TIP3      OH2           -23.4254546830       30.9592563562       35.1332027488  TIP3      2357            0.0000000000
     29390      2549  TIP3      H1            -22.5350344004       31.3917773196       35.1327987532  TIP3      2357            0.0000000000
     29391      2549  TIP3      H2            -23.9651618706       31.7584927545       35.0593094904  TIP3      2357            0.0000000000
     29392      2550  TIP3      OH2           -34.6830746765       28.3517795288       37.5633382392  TIP3      2358            0.0000000000
     29393      2550  TIP3      H1            -34.1522046655       27.5479996119       37.6600295061  TIP3      2358            0.0000000000
     29394      2550  TIP3      H2            -34.8024425200       28.5469418734       38.5194842792  TIP3      2358            0.0000000000
     29395      2551  TIP3      OH2           -31.1283683408       27.4451856065       34.4208662665  TIP3      2359            0.0000000000
     29396      2551  TIP3      H1            -31.6639008554       28.2538651660       34.5538547523  TIP3      2359            0.0000000000
     29397      2551  TIP3      H2            -30.3283407170       27.8823279857       34.0367241256  TIP3      2359            0.0000000000
     29398      2552  TIP3      OH2           -25.4042562458       30.0737659770       38.2421005187  TIP3      2360            0.0000000000
     29399      2552  TIP3      H1            -24.5932109520       29.5717991499       38.0462167285  TIP3      2360            0.0000000000
     29400      2552  TIP3      H2            -25.8914122247       29.4342559679       38.8094180623  TIP3      2360            0.0000000000
     29401      2553  TIP3      OH2           -30.0197030364       25.1851479348       35.4955914048  TIP3      2361            0.0000000000
     29402      2553  TIP3      H1            -30.0007059712       24.5073427694       34.7803202840  TIP3      2361            0.0000000000
     29403      2553  TIP3      H2            -30.3959080641       25.9764852940       35.0401892007  TIP3      2361            0.0000000000
     29404      2554  TIP3      OH2           -29.8595604300       23.1350499498       33.4817596168  TIP3      2362            0.0000000000
     29405      2554  TIP3      H1            -29.4348347703       23.5690792866       32.7136356567  TIP3      2362            0.0000000000
     29406      2554  TIP3      H2            -30.7897044253       23.0993458094       33.1670034687  TIP3      2362            0.0000000000
     29407      2555  TIP3      OH2           -28.7889088716       28.8858829712       33.4237885140  TIP3      2363            0.0000000000
     29408      2555  TIP3      H1            -27.8528204684       29.0632706938       33.3112838101  TIP3      2363            0.0000000000
     29409      2555  TIP3      H2            -29.2095261709       29.7092616159       33.1201974434  TIP3      2363            0.0000000000
     29410      2556  TIP3      OH2           -24.3934409794       26.4375333273       38.8194084133  TIP3      2364            0.0000000000
     29411      2556  TIP3      H1            -24.3400101111       25.5660140816       39.2522540365  TIP3      2364            0.0000000000
     29412      2556  TIP3      H2            -23.4586039540       26.6735111216       38.7226077028  TIP3      2364            0.0000000000
     29413      2557  TIP3      OH2           -22.5199423618       29.2460800486       37.0964818502  TIP3      2365            0.0000000000
     29414      2557  TIP3      H1            -22.9063411267       29.7940140682       36.3805760976  TIP3      2365            0.0000000000
     29415      2557  TIP3      H2            -21.5652788037       29.2345733497       36.8539116182  TIP3      2365            0.0000000000
     29416      2558  TIP3      OH2           -31.6251718721       25.7125647111       37.8203581280  TIP3      2366            0.0000000000
     29417      2558  TIP3      H1            -32.5564195421       25.4085157634       37.7636200458  TIP3      2366            0.0000000000
     29418      2558  TIP3      H2            -31.3670760837       25.7143589968       36.8853663200  TIP3      2366            0.0000000000
     29419      2559  TIP3      OH2           -29.1580209916       20.5596360760       33.7164878768  TIP3      2367            0.0000000000
     29420      2559  TIP3      H1            -29.3818334562       21.5058594918       33.6128275155  TIP3      2367            0.0000000000
     29421      2559  TIP3      H2            -29.9073965014       20.1565359642       33.2264298665  TIP3      2367            0.0000000000
     29422      2560  TIP3      OH2           -28.1881071773       25.0419593497       37.6345423370  TIP3      2368            0.0000000000
     29423      2560  TIP3      H1            -28.8636399946       24.8848723338       38.3373154471  TIP3      2368            0.0000000000
     29424      2560  TIP3      H2            -28.7374495221       24.8380782306       36.8480115037  TIP3      2368            0.0000000000
     29425      2561  TIP3      OH2           -25.4748474352       24.1869401907       36.7635235991  TIP3      2369            0.0000000000
     29426      2561  TIP3      H1            -26.3874532480       24.1756545458       37.0959776888  TIP3      2369            0.0000000000
     29427      2561  TIP3      H2            -25.0236367809       23.6178981161       37.4336415622  TIP3      2369            0.0000000000
     29428      2562  TIP3      OH2           -24.1067142695       22.6636572960       38.5038313683  TIP3      2370            0.0000000000
     29429      2562  TIP3      H1            -23.6267647459       21.8216792487       38.6387645864  TIP3      2370            0.0000000000
     29430      2562  TIP3      H2            -23.9692482645       23.1448215486       39.3527223424  TIP3      2370            0.0000000000
     29431      2563  TIP3      OH2           -33.6561803111       23.9535098905       37.4319787793  TIP3      2371            0.0000000000
     29432      2563  TIP3      H1            -33.8757329206       23.0587733171       37.1110323962  TIP3      2371            0.0000000000
     29433      2563  TIP3      H2            -33.6170839952       23.7991107622       38.4097968936  TIP3      2371            0.0000000000
     29434      2564  TIP3      OH2           -29.1014383920       19.8698679904       36.8201586384  TIP3      2372            0.0000000000
     29435      2564  TIP3      H1            -28.4751051377       19.1281330941       36.8455251857  TIP3      2372            0.0000000000
     29436      2564  TIP3      H2            -29.0713957901       20.0580827769       35.8680485047  TIP3      2372            0.0000000000
     29437      2565  TIP3      OH2           -29.0802915360       21.2715878893       39.1451893900  TIP3      2373            0.0000000000
     29438      2565  TIP3      H1            -29.1450256591       20.7294988795       38.3250715678  TIP3      2373            0.0000000000
     29439      2565  TIP3      H2            -29.2899673885       22.1606325158       38.8056146776  TIP3      2373            0.0000000000
     29440      2566  TIP3      OH2           -35.7961522203       37.1236222912       28.0994105407  TIP3      2374            0.0000000000
     29441      2566  TIP3      H1            -36.0459634488       36.2676261616       28.5031279487  TIP3      2374            0.0000000000
     29442      2566  TIP3      H2            -35.2401212774       37.5238256583       28.8028248673  TIP3      2374            0.0000000000
     29443      2567  TIP3      OH2           -20.1916542736       32.5562261528       38.9386361403  TIP3      2375            0.0000000000
     29444      2567  TIP3      H1            -21.0635273771       32.6645068214       39.3850571523  TIP3      2375            0.0000000000
     29445      2567  TIP3      H2            -19.8361457416       33.4666138863       39.0463588384  TIP3      2375            0.0000000000
     29446      2568  TIP3      OH2           -18.7599135271       30.5319574887       24.3754623418  TIP3      2376            0.0000000000
     29447      2568  TIP3      H1            -18.1656509512       31.3014697913       24.4196632583  TIP3      2376            0.0000000000
     29448      2568  TIP3      H2            -18.8012818277       30.2832588246       25.3348599400  TIP3      2376            0.0000000000
     29449      2569  TIP3      OH2           -18.8045030907       29.5767671314       26.8253531535  TIP3      2377            0.0000000000
     29450      2569  TIP3      H1            -19.4088821786       28.8120736103       26.8911257435  TIP3      2377            0.0000000000
     29451      2569  TIP3      H2            -18.1106898788       29.3281847388       27.4692176857  TIP3      2377            0.0000000000
     29452      2570  TIP3      OH2           -19.0308565867       31.8724788827       30.7067193045  TIP3      2378            0.0000000000
     29453      2570  TIP3      H1            -18.3341938007       31.1771855787       30.6878804956  TIP3      2378            0.0000000000
     29454      2570  TIP3      H2            -18.4881332057       32.6698678563       30.5466814190  TIP3      2378            0.0000000000
     29455      2571  TIP3      OH2           -20.3751521353       34.6059242918       33.5434865929  TIP3      2379            0.0000000000
     29456      2571  TIP3      H1            -21.1439823078       35.0941052884       33.8696078371  TIP3      2379            0.0000000000
     29457      2571  TIP3      H2            -20.6488825874       34.3748276670       32.6242947906  TIP3      2379            0.0000000000
     29458      2572  TIP3      OH2           -17.8671993453       28.9944288680       22.3834718790  TIP3      2380            0.0000000000
     29459      2572  TIP3      H1            -18.7782530330       28.6909566461       22.3026902444  TIP3      2380            0.0000000000
     29460      2572  TIP3      H2            -17.9996322489       29.7090898268       23.0421101687  TIP3      2380            0.0000000000
     29461      2573  TIP3      OH2           -20.4986559881       27.4824466626       26.8409552431  TIP3      2381            0.0000000000
     29462      2573  TIP3      H1            -20.9626294032       26.7624126301       26.3705885387  TIP3      2381            0.0000000000
     29463      2573  TIP3      H2            -20.9526387328       27.5003926682       27.7134408707  TIP3      2381            0.0000000000
     29464      2574  TIP3      OH2           -36.1738769840       29.9072876644       30.6960545950  TIP3      2382            0.0000000000
     29465      2574  TIP3      H1            -36.0061302700       29.6858205972       29.7490498570  TIP3      2382            0.0000000000
     29466      2574  TIP3      H2            -35.2551966031       29.8365253828       31.0323888480  TIP3      2382            0.0000000000
     29467      2575  TIP3      OH2           -19.7335486098       29.3643467883       36.4223858454  TIP3      2383            0.0000000000
     29468      2575  TIP3      H1            -19.4347306020       28.4192047672       36.4075895292  TIP3      2383            0.0000000000
     29469      2575  TIP3      H2            -19.0120046628       29.7708678160       35.8945393334  TIP3      2383            0.0000000000
     29470      2576  TIP3      OH2           -18.7607776879       26.7905732363       36.7173214945  TIP3      2384            0.0000000000
     29471      2576  TIP3      H1            -19.6636803472       26.4024840802       36.7019433112  TIP3      2384            0.0000000000
     29472      2576  TIP3      H2            -18.1766214904       26.0009699195       36.6351081424  TIP3      2384            0.0000000000
     29473      2577  TIP3      OH2           -21.4864091179       25.1931478534       25.2876961001  TIP3      2385            0.0000000000
     29474      2577  TIP3      H1            -20.9875677033       24.3828516948       25.5257372645  TIP3      2385            0.0000000000
     29475      2577  TIP3      H2            -21.2595327366       25.2199663794       24.3357609753  TIP3      2385            0.0000000000
     29476      2578  TIP3      OH2           -20.5611834935       26.0732041432       30.5212143069  TIP3      2386            0.0000000000
     29477      2578  TIP3      H1            -19.5723050375       26.1229653081       30.5247821587  TIP3      2386            0.0000000000
     29478      2578  TIP3      H2            -20.7218546126       25.8733964859       31.4570600153  TIP3      2386            0.0000000000
     29479      2579  TIP3      OH2           -20.4147798451       26.5352595206       33.2084438170  TIP3      2387            0.0000000000
     29480      2579  TIP3      H1            -21.2686252932       26.8311224375       33.5853932954  TIP3      2387            0.0000000000
     29481      2579  TIP3      H2            -19.9967318358       27.3935959929       32.9778371825  TIP3      2387            0.0000000000
     29482      2580  TIP3      OH2           -35.9983133760       25.0960377412       37.0114954365  TIP3      2388            0.0000000000
     29483      2580  TIP3      H1            -35.1178272533       24.7185090816       37.2170688243  TIP3      2388            0.0000000000
     29484      2580  TIP3      H2            -36.5714350876       24.3037577732       37.1137765039  TIP3      2388            0.0000000000
     29485      2581  TIP3      OH2           -18.3413489384       20.7682333256       38.4195634790  TIP3      2389            0.0000000000
     29486      2581  TIP3      H1            -17.8033575564       20.1228251344       37.9137640182  TIP3      2389            0.0000000000
     29487      2581  TIP3      H2            -18.4506456798       21.4749726194       37.7440403534  TIP3      2389            0.0000000000
     29488      2582  TIP3      OH2           -20.4563409558       22.5142620237       25.1442286555  TIP3      2390            0.0000000000
     29489      2582  TIP3      H1            -20.1464612048       22.2662223964       26.0380645778  TIP3      2390            0.0000000000
     29490      2582  TIP3      H2            -21.0447717907       21.7727687542       24.9389870500  TIP3      2390            0.0000000000
     29491      2583  TIP3      OH2           -35.0896976220       23.2781781293       29.7298354418  TIP3      2391            0.0000000000
     29492      2583  TIP3      H1            -34.5601735953       22.4460888209       29.7705950731  TIP3      2391            0.0000000000
     29493      2583  TIP3      H2            -34.5325909787       23.8583144245       30.2879458609  TIP3      2391            0.0000000000
     29494      2584  TIP3      OH2           -36.4109546821       27.3520163664       31.4657562319  TIP3      2392            0.0000000000
     29495      2584  TIP3      H1            -35.6772987510       27.2027368121       30.8373118493  TIP3      2392            0.0000000000
     29496      2584  TIP3      H2            -36.7118869559       28.2425196726       31.1944993416  TIP3      2392            0.0000000000
     29497      2585  TIP3      OH2           -19.0043779135       22.8853960411       36.9181895606  TIP3      2393            0.0000000000
     29498      2585  TIP3      H1            -19.7422200835       23.0937116537       37.5326916559  TIP3      2393            0.0000000000
     29499      2585  TIP3      H2            -19.4902464296       22.6674547191       36.0977722004  TIP3      2393            0.0000000000
     29500      2586  TIP3      OH2           -35.6344275044       22.7076326527       24.2524537263  TIP3      2394            0.0000000000
     29501      2586  TIP3      H1            -36.0205217995       23.6056957805       24.2223012773  TIP3      2394            0.0000000000
     29502      2586  TIP3      H2            -35.1937267991       22.7335411205       25.1185323989  TIP3      2394            0.0000000000
     29503      2587  TIP3      OH2           -36.2191442432       20.6373659499       33.1912411808  TIP3      2395            0.0000000000
     29504      2587  TIP3      H1            -36.6335423202       20.9861141820       33.9918193956  TIP3      2395            0.0000000000
     29505      2587  TIP3      H2            -36.2953385863       21.4153639836       32.6128180464  TIP3      2395            0.0000000000
     29506      2588  TIP3      OH2           -34.2568715505       34.2352217772       37.3507601013  TIP3      2396            0.0000000000
     29507      2588  TIP3      H1            -35.1629008096       34.5358831609       37.5075329509  TIP3      2396            0.0000000000
     29508      2588  TIP3      H2            -33.7917141362       34.5492946527       38.1430771667  TIP3      2396            0.0000000000
     29509      2589  TIP3      OH2           -31.2859316422       35.7776030787       33.6692295001  TIP3      2397            0.0000000000
     29510      2589  TIP3      H1            -32.0504411851       35.8840431781       33.0751411095  TIP3      2397            0.0000000000
     29511      2589  TIP3      H2            -30.5423323995       35.5937824380       33.0743861060  TIP3      2397            0.0000000000
     29512      2590  TIP3      OH2           -19.6655469035       20.5513921389       34.9972552989  TIP3      2398            0.0000000000
     29513      2590  TIP3      H1            -20.3579853263       20.9507584513       34.4563230728  TIP3      2398            0.0000000000
     29514      2590  TIP3      H2            -19.7223858808       19.6125310808       34.7367678734  TIP3      2398            0.0000000000
     29515      2591  TIP3      OH2           -32.6106090475       35.5278233220       28.5238798841  TIP3      2399            0.0000000000
     29516      2591  TIP3      H1            -32.6515624280       34.6051579834       28.8284205002  TIP3      2399            0.0000000000
     29517      2591  TIP3      H2            -31.8288101830       35.8173313159       29.0320903606  TIP3      2399            0.0000000000
     29518      2592  TIP3      OH2           -30.4575155350       35.8406592176       30.4264569150  TIP3      2400            0.0000000000
     29519      2592  TIP3      H1            -30.4197120087       34.9897756944       29.9393868637  TIP3      2400            0.0000000000
     29520      2592  TIP3      H2            -29.8930778837       35.5759047450       31.1680492748  TIP3      2400            0.0000000000
     29521      2593  TIP3      OH2           -26.9026326522       21.7994018592       28.4650719760  TIP3      2401            0.0000000000
     29522      2593  TIP3      H1            -27.6497373714       21.2379816011       28.7663937221  TIP3      2401            0.0000000000
     29523      2593  TIP3      H2            -26.1252666858       21.2252929142       28.5502492897  TIP3      2401            0.0000000000
     29524      2594  TIP3      OH2           -21.1658720320       20.2601931865       29.1996360381  TIP3      2402            0.0000000000
     29525      2594  TIP3      H1            -20.4513779725       20.7585526612       28.7372694938  TIP3      2402            0.0000000000
     29526      2594  TIP3      H2            -21.9542770439       20.6107761397       28.7402480358  TIP3      2402            0.0000000000
     29527      2595  TIP3      OH2           -19.5925906901       21.5660012880       27.5559235934  TIP3      2403            0.0000000000
     29528      2595  TIP3      H1            -19.0674507154       20.8832353639       27.0738415280  TIP3      2403            0.0000000000
     29529      2595  TIP3      H2            -18.9017367305       22.2338221133       27.7900545412  TIP3      2403            0.0000000000
     29530      2596  TIP3      OH2           -34.0611588739       20.6477014753       26.9570901232  TIP3      2404            0.0000000000
     29531      2596  TIP3      H1            -34.6863260386       20.5304713313       26.2162203949  TIP3      2404            0.0000000000
     29532      2596  TIP3      H2            -33.4582006828       19.8867577350       26.7625547970  TIP3      2404            0.0000000000
     29533      2597  TIP3      OH2           -35.8634859998       20.4865779965       22.6262027355  TIP3      2405            0.0000000000
     29534      2597  TIP3      H1            -34.9983186854       20.4408790060       22.2023091674  TIP3      2405            0.0000000000
     29535      2597  TIP3      H2            -35.6163100261       20.8798596193       23.4886440692  TIP3      2405            0.0000000000
     29536      2598  TIP3      OH2           -29.6792958061       20.4112170465       26.6402710346  TIP3      2406            0.0000000000
     29537      2598  TIP3      H1            -28.9459608955       20.3929058728       26.0101576657  TIP3      2406            0.0000000000
     29538      2598  TIP3      H2            -29.2227506901       20.4280482177       27.4960589943  TIP3      2406            0.0000000000
     29539      2599  TIP3      OH2           -23.9466803853       20.8429458924       28.1183202128  TIP3      2407            0.0000000000
     29540      2599  TIP3      H1            -23.7620164680       20.6164458146       27.2006130784  TIP3      2407            0.0000000000
     29541      2599  TIP3      H2            -24.3828631852       20.0087086093       28.4090589825  TIP3      2407            0.0000000000
     29542      2600  TIP3      OH2           -22.9132831503       20.9062942925       24.1141272713  TIP3      2408            0.0000000000
     29543      2600  TIP3      H1            -23.6163521908       21.5725937129       24.2451892159  TIP3      2408            0.0000000000
     29544      2600  TIP3      H2            -23.3436101723       20.0735428396       24.4058025505  TIP3      2408            0.0000000000
     29545      2601  TIP3      OH2           -35.2966143050      -36.4391590658       24.9807978150  TIP3      2409            0.0000000000
     29546      2601  TIP3      H1            -36.2424603816      -36.5827134143       25.0838946200  TIP3      2409            0.0000000000
     29547      2601  TIP3      H2            -35.2865499168      -35.4534935752       24.9247217982  TIP3      2409            0.0000000000
     29548      2602  TIP3      OH2           -28.3976691658       22.7787571579       23.4868454880  TIP3      2410            0.0000000000
     29549      2602  TIP3      H1            -28.2711785481       22.0642426573       24.1202515172  TIP3      2410            0.0000000000
     29550      2602  TIP3      H2            -28.0879926670       23.5220183371       24.0640950315  TIP3      2410            0.0000000000
     29551      2603  TIP3      OH2           -34.4518300451       21.2560855394       36.4519756902  TIP3      2411            0.0000000000
     29552      2603  TIP3      H1            -34.8320445281       20.3627230705       36.4954236723  TIP3      2411            0.0000000000
     29553      2603  TIP3      H2            -33.5647577739       21.0787892374       36.8428942974  TIP3      2411            0.0000000000
     29554      2604  TIP3      OH2           -32.3166329760       20.7343709853       38.1832489833  TIP3      2412            0.0000000000
     29555      2604  TIP3      H1            -31.5293447228       20.2230155068       37.9255998957  TIP3      2412            0.0000000000
     29556      2604  TIP3      H2            -32.7842479956       20.1078470254       38.7610905622  TIP3      2412            0.0000000000
     29557      2605  TIP3      OH2           -23.4261573307       20.1237997109       38.9164864616  TIP3      2413            0.0000000000
     29558      2605  TIP3      H1            -23.4157206831       19.7471462111       39.8245640192  TIP3      2413            0.0000000000
     29559      2605  TIP3      H2            -22.4785032236       20.0572177492       38.6560952139  TIP3      2413            0.0000000000
     29560      2606  TIP3      OH2           -20.9201104298       35.5912093023       36.8800609158  TIP3      2414            0.0000000000
     29561      2606  TIP3      H1            -21.7316568069       35.6224575427       36.3256351302  TIP3      2414            0.0000000000
     29562      2606  TIP3      H2            -20.4727008853       36.3915115082       36.5462365950  TIP3      2414            0.0000000000
     29563      2607  TIP3      OH2            -5.7161148510       30.0834345273       26.7162370349  TIP3      2415            0.0000000000
     29564      2607  TIP3      H1             -5.8478286590       31.0571994542       26.8113479394  TIP3      2415            0.0000000000
     29565      2607  TIP3      H2             -6.4603585215       29.8510192365       26.1385443170  TIP3      2415            0.0000000000
     29566      2608  TIP3      OH2            -7.1865237337       28.6289474821       30.0379920784  TIP3      2416            0.0000000000
     29567      2608  TIP3      H1             -7.2597905077       28.2566225529       30.9390066522  TIP3      2416            0.0000000000
     29568      2608  TIP3      H2             -8.0047309653       28.3635353514       29.5856248544  TIP3      2416            0.0000000000
     29569      2609  TIP3      OH2           -15.1639839073       28.4724477737       31.5289664539  TIP3      2417            0.0000000000
     29570      2609  TIP3      H1            -14.9192522351       27.8988931747       32.2721071807  TIP3      2417            0.0000000000
     29571      2609  TIP3      H2            -14.4626434345       29.1809391414       31.5527188425  TIP3      2417            0.0000000000
     29572      2610  TIP3      OH2            -3.9925409340       32.4148281576       28.9042461060  TIP3      2418            0.0000000000
     29573      2610  TIP3      H1             -4.0897419398       31.5943075706       29.4069943240  TIP3      2418            0.0000000000
     29574      2610  TIP3      H2             -3.8899232477       33.0738186666       29.5980540568  TIP3      2418            0.0000000000
     29575      2611  TIP3      OH2           -13.4600842980       33.5593464751       30.0140539698  TIP3      2419            0.0000000000
     29576      2611  TIP3      H1            -13.5477482046       32.6773251683       30.4513010894  TIP3      2419            0.0000000000
     29577      2611  TIP3      H2            -12.5816479218       33.3810041711       29.6212535776  TIP3      2419            0.0000000000
     29578      2612  TIP3      OH2           -17.0633730779       26.9035833346       25.8798901535  TIP3      2420            0.0000000000
     29579      2612  TIP3      H1            -17.3090310807       27.8344556141       25.8132996954  TIP3      2420            0.0000000000
     29580      2612  TIP3      H2            -17.9323587147       26.5042081531       25.9918413332  TIP3      2420            0.0000000000
     29581      2613  TIP3      OH2           -16.8386983162       28.7856104866       28.3236697024  TIP3      2421            0.0000000000
     29582      2613  TIP3      H1            -16.4129768945       27.8982245658       28.3651734712  TIP3      2421            0.0000000000
     29583      2613  TIP3      H2            -16.0445655460       29.3850481687       28.2467979126  TIP3      2421            0.0000000000
     29584      2614  TIP3      OH2            -9.0094452534       31.3709035685       31.0481826630  TIP3      2422            0.0000000000
     29585      2614  TIP3      H1             -8.7035742578       30.8809262833       30.2784343094  TIP3      2422            0.0000000000
     29586      2614  TIP3      H2             -8.1734445388       31.7658050219       31.3576015654  TIP3      2422            0.0000000000
     29587      2615  TIP3      OH2            -0.4308092108       23.1582144695       31.1543406668  TIP3      2423            0.0000000000
     29588      2615  TIP3      H1             -0.3140765350       23.5443569561       32.0484428610  TIP3      2423            0.0000000000
     29589      2615  TIP3      H2              0.4532738244       23.3316334795       30.7903869525  TIP3      2423            0.0000000000
     29590      2616  TIP3      OH2            -5.2276994579       26.1072810672       31.2797578475  TIP3      2424            0.0000000000
     29591      2616  TIP3      H1             -5.1865601027       25.1770700222       31.5645302351  TIP3      2424            0.0000000000
     29592      2616  TIP3      H2             -5.2413947849       25.9708840764       30.3051426531  TIP3      2424            0.0000000000
     29593      2617  TIP3      OH2           -12.3013934939       23.8274066818       27.9009911469  TIP3      2425            0.0000000000
     29594      2617  TIP3      H1            -12.2406855044       24.6800392087       27.4314156797  TIP3      2425            0.0000000000
     29595      2617  TIP3      H2            -12.7512501328       23.2888925786       27.2139350868  TIP3      2425            0.0000000000
     29596      2618  TIP3      OH2            -4.9096162692       24.1244161114       26.8733068610  TIP3      2426            0.0000000000
     29597      2618  TIP3      H1             -4.4253655580       23.9131662825       27.6947583401  TIP3      2426            0.0000000000
     29598      2618  TIP3      H2             -4.4940621221       24.9440262660       26.5961361964  TIP3      2426            0.0000000000
     29599      2619  TIP3      OH2           -16.0736019275       26.2284920532       28.8319476862  TIP3      2427            0.0000000000
     29600      2619  TIP3      H1            -15.3369515622       26.0771385568       29.4447106169  TIP3      2427            0.0000000000
     29601      2619  TIP3      H2            -15.7324264838       25.7817143669       28.0283744711  TIP3      2427            0.0000000000
     29602      2620  TIP3      OH2           -11.1366470730       28.1708912034       28.0740164853  TIP3      2428            0.0000000000
     29603      2620  TIP3      H1            -10.4096571947       27.5951539884       28.3856433546  TIP3      2428            0.0000000000
     29604      2620  TIP3      H2            -11.7174358624       27.5280363043       27.5982989918  TIP3      2428            0.0000000000
     29605      2621  TIP3      OH2            -0.1131891311       24.4115590373       33.5702453725  TIP3      2429            0.0000000000
     29606      2621  TIP3      H1             -0.4369648650       25.2165437279       33.0999842311  TIP3      2429            0.0000000000
     29607      2621  TIP3      H2              0.0102310808       24.7727488519       34.4677434629  TIP3      2429            0.0000000000
     29608      2622  TIP3      OH2           -13.3953846870       23.1111430476       32.2852010455  TIP3      2430            0.0000000000
     29609      2622  TIP3      H1            -13.8134804139       23.4774084767       31.4799231827  TIP3      2430            0.0000000000
     29610      2622  TIP3      H2            -14.0245292451       23.3977421106       32.9789226755  TIP3      2430            0.0000000000
     29611      2623  TIP3      OH2            -6.2940378649       32.6076018909       25.8444879021  TIP3      2431            0.0000000000
     29612      2623  TIP3      H1             -6.6426084537       32.5351524996       24.9349263535  TIP3      2431            0.0000000000
     29613      2623  TIP3      H2             -6.6512990679       33.4575458990       26.1474302052  TIP3      2431            0.0000000000
     29614      2624  TIP3      OH2           -10.7635776224       30.8117223295       32.9863732685  TIP3      2432            0.0000000000
     29615      2624  TIP3      H1            -11.6484319007       30.8129059824       32.5603674651  TIP3      2432            0.0000000000
     29616      2624  TIP3      H2            -10.2579368723       31.1397486184       32.2139470790  TIP3      2432            0.0000000000
     29617      2625  TIP3      OH2            -2.7680631165       24.2032443135       29.1045540069  TIP3      2433            0.0000000000
     29618      2625  TIP3      H1             -2.1802400142       23.4359315385       29.1424845330  TIP3      2433            0.0000000000
     29619      2625  TIP3      H2             -2.2629096455       24.8566738635       29.6398133947  TIP3      2433            0.0000000000
     29620      2626  TIP3      OH2           -14.0111563445       24.8146109945       30.1545776635  TIP3      2434            0.0000000000
     29621      2626  TIP3      H1            -13.3870534821       25.4069312589       30.6322896228  TIP3      2434            0.0000000000
     29622      2626  TIP3      H2            -13.4531345747       24.5013034604       29.4128041055  TIP3      2434            0.0000000000
     29623      2627  TIP3      OH2           -12.6324438115       32.9468483342       33.3342096696  TIP3      2435            0.0000000000
     29624      2627  TIP3      H1            -12.7685526958       32.4968726807       32.4761199322  TIP3      2435            0.0000000000
     29625      2627  TIP3      H2            -13.4136604697       32.5854585617       33.8188942857  TIP3      2435            0.0000000000
     29626      2628  TIP3      OH2           -16.7079981230       32.6718456719       24.1961994173  TIP3      2436            0.0000000000
     29627      2628  TIP3      H1            -17.0627461972       33.0472545387       23.3747233609  TIP3      2436            0.0000000000
     29628      2628  TIP3      H2            -16.1904529971       33.4058369245       24.5566720023  TIP3      2436            0.0000000000
     29629      2629  TIP3      OH2            -2.9544664115       34.2951359765       31.4055420625  TIP3      2437            0.0000000000
     29630      2629  TIP3      H1             -3.9411776436       34.3419205984       31.4650075253  TIP3      2437            0.0000000000
     29631      2629  TIP3      H2             -2.7993155207       34.9066889175       30.6674305334  TIP3      2437            0.0000000000
     29632      2630  TIP3      OH2            -3.1153290087       22.3450892924       32.0458102993  TIP3      2438            0.0000000000
     29633      2630  TIP3      H1             -3.8752595380       22.6868661176       31.5244910902  TIP3      2438            0.0000000000
     29634      2630  TIP3      H2             -2.3608074509       22.6736595584       31.5172718976  TIP3      2438            0.0000000000
     29635      2631  TIP3      OH2           -10.3233383306       20.1985957924       29.2503712765  TIP3      2439            0.0000000000
     29636      2631  TIP3      H1            -10.4295538053       19.3233819563       29.6474663395  TIP3      2439            0.0000000000
     29637      2631  TIP3      H2            -11.0571298844       20.6822929470       29.7191931600  TIP3      2439            0.0000000000
     29638      2632  TIP3      OH2            -4.4758213575       35.8319685093       26.8565548196  TIP3      2440            0.0000000000
     29639      2632  TIP3      H1             -4.1864295126       34.9842538453       26.4464120355  TIP3      2440            0.0000000000
     29640      2632  TIP3      H2             -3.6214702104       36.1820945651       27.1584346839  TIP3      2440            0.0000000000
     29641      2633  TIP3      OH2            -3.4976438714       33.3984155189       25.9985204521  TIP3      2441            0.0000000000
     29642      2633  TIP3      H1             -3.4403639917       32.8002205357       25.2243531000  TIP3      2441            0.0000000000
     29643      2633  TIP3      H2             -3.9190219816       32.8114389623       26.6580756608  TIP3      2441            0.0000000000
     29644      2634  TIP3      OH2            -2.1338263990       32.2298096539       34.7385533696  TIP3      2442            0.0000000000
     29645      2634  TIP3      H1             -2.0162937339       31.5178448555       34.0608769757  TIP3      2442            0.0000000000
     29646      2634  TIP3      H2             -1.9710091986       33.0197642368       34.1934802483  TIP3      2442            0.0000000000
     29647      2635  TIP3      OH2            -7.1842197301       29.1077272355       24.0020602089  TIP3      2443            0.0000000000
     29648      2635  TIP3      H1             -7.8670579797       29.8033460597       23.9943835062  TIP3      2443            0.0000000000
     29649      2635  TIP3      H2             -7.1440944117       28.9438092634       23.0437127197  TIP3      2443            0.0000000000
     29650      2636  TIP3      OH2             0.0212326707       28.7980582473       32.3295678776  TIP3      2444            0.0000000000
     29651      2636  TIP3      H1             -0.5695707949       29.5524787695       32.5279684864  TIP3      2444            0.0000000000
     29652      2636  TIP3      H2              0.6221994705       29.2256569079       31.6819949667  TIP3      2444            0.0000000000
     29653      2637  TIP3      OH2            -3.5559070871       29.2588393216       25.2950090519  TIP3      2445            0.0000000000
     29654      2637  TIP3      H1             -4.2924471717       29.5192067281       25.9036055265  TIP3      2445            0.0000000000
     29655      2637  TIP3      H2             -2.9188736603       28.8572935888       25.9195269237  TIP3      2445            0.0000000000
     29656      2638  TIP3      OH2            -3.4607694693       27.9081408177       34.2822479697  TIP3      2446            0.0000000000
     29657      2638  TIP3      H1             -3.6911764745       28.7826712312       34.6330581259  TIP3      2446            0.0000000000
     29658      2638  TIP3      H2             -4.2164297746       27.7891112514       33.6849397175  TIP3      2446            0.0000000000
     29659      2639  TIP3      OH2           -12.1128733042       30.3767085898       27.0772277988  TIP3      2447            0.0000000000
     29660      2639  TIP3      H1            -12.5181252289       30.0454261690       26.2482759285  TIP3      2447            0.0000000000
     29661      2639  TIP3      H2            -11.7667824518       29.5346873333       27.4589010442  TIP3      2447            0.0000000000
     29662      2640  TIP3      OH2           -10.8906223470       33.3305597867       29.6118438959  TIP3      2448            0.0000000000
     29663      2640  TIP3      H1            -10.3529209655       33.0185301865       28.8663911266  TIP3      2448            0.0000000000
     29664      2640  TIP3      H2            -10.3805922312       33.0262257856       30.3819019024  TIP3      2448            0.0000000000
     29665      2641  TIP3      OH2           -11.3676855902       28.3366681156       30.6710183930  TIP3      2449            0.0000000000
     29666      2641  TIP3      H1            -11.4848529005       28.4717595791       29.7043387629  TIP3      2449            0.0000000000
     29667      2641  TIP3      H2            -11.8321465245       29.1553152560       30.9676248758  TIP3      2449            0.0000000000
     29668      2642  TIP3      OH2            -5.6387707486       34.5109725182       31.4956540761  TIP3      2450            0.0000000000
     29669      2642  TIP3      H1             -6.1736511844       35.2171140688       31.8627092255  TIP3      2450            0.0000000000
     29670      2642  TIP3      H2             -6.0054820806       33.7132177241       31.9208790224  TIP3      2450            0.0000000000
     29671      2643  TIP3      OH2           -10.9436679970       33.2382111743       35.5950223902  TIP3      2451            0.0000000000
     29672      2643  TIP3      H1            -11.6612390834       33.7305490783       36.0637638972  TIP3      2451            0.0000000000
     29673      2643  TIP3      H2            -11.3975030562       33.0240718113       34.7381700253  TIP3      2451            0.0000000000
     29674      2644  TIP3      OH2            -4.4201146494       28.4253328166       22.7597802311  TIP3      2452            0.0000000000
     29675      2644  TIP3      H1             -4.2168020733       28.8021899139       23.6437490657  TIP3      2452            0.0000000000
     29676      2644  TIP3      H2             -4.9559815087       29.1316853362       22.3754110044  TIP3      2452            0.0000000000
     29677      2645  TIP3      OH2           -13.9095313341       29.0644198934       34.3738762934  TIP3      2453            0.0000000000
     29678      2645  TIP3      H1            -13.6524461630       29.8552483749       34.8633383972  TIP3      2453            0.0000000000
     29679      2645  TIP3      H2            -14.6782758227       28.8385411563       34.9126058943  TIP3      2453            0.0000000000
     29680      2646  TIP3      OH2            -7.2969269094       35.3562939927       27.5965685779  TIP3      2454            0.0000000000
     29681      2646  TIP3      H1             -6.4990197818       35.7304541314       27.2050745063  TIP3      2454            0.0000000000
     29682      2646  TIP3      H2             -7.8372201434       35.1770297352       26.8274311611  TIP3      2454            0.0000000000
     29683      2647  TIP3      OH2           -12.8409695249       35.0323080543       36.3599291908  TIP3      2455            0.0000000000
     29684      2647  TIP3      H1            -12.8330065876       35.4379773984       35.4669181332  TIP3      2455            0.0000000000
     29685      2647  TIP3      H2            -13.6850020959       34.5212693915       36.3625551774  TIP3      2455            0.0000000000
     29686      2648  TIP3      OH2           -13.0953276109       28.8187867790       24.8359288601  TIP3      2456            0.0000000000
     29687      2648  TIP3      H1            -12.6580596068       28.8428551088       23.9595704323  TIP3      2456            0.0000000000
     29688      2648  TIP3      H2            -13.7692830688       28.1451249743       24.6908377916  TIP3      2456            0.0000000000
     29689      2649  TIP3      OH2           -17.2272362740       31.4678677567       33.8368051843  TIP3      2457            0.0000000000
     29690      2649  TIP3      H1            -17.1503425866       31.2564651479       32.8939567884  TIP3      2457            0.0000000000
     29691      2649  TIP3      H2            -17.2776527934       30.5764405525       34.2469635468  TIP3      2457            0.0000000000
     29692      2650  TIP3      OH2           -17.1024410237       33.9873334120       30.5158624321  TIP3      2458            0.0000000000
     29693      2650  TIP3      H1            -16.3125149599       33.4246326365       30.5451900928  TIP3      2458            0.0000000000
     29694      2650  TIP3      H2            -16.9158558313       34.6214032653       31.2242057357  TIP3      2458            0.0000000000
     29695      2651  TIP3      OH2             0.4503183594       35.2737380555       36.2222093528  TIP3      2459            0.0000000000
     29696      2651  TIP3      H1              0.4542812489       34.5641366623       35.5555030683  TIP3      2459            0.0000000000
     29697      2651  TIP3      H2             -0.4121235912       35.1270579699       36.6476035495  TIP3      2459            0.0000000000
     29698      2652  TIP3      OH2            -8.5328239943       34.3240889203       34.9061474089  TIP3      2460            0.0000000000
     29699      2652  TIP3      H1             -8.2585943562       34.6202066800       35.7851054224  TIP3      2460            0.0000000000
     29700      2652  TIP3      H2             -9.3525649950       33.8249449642       35.1145582523  TIP3      2460            0.0000000000
     29701      2653  TIP3      OH2            -2.3588529332       26.2646734983       36.5070460694  TIP3      2461            0.0000000000
     29702      2653  TIP3      H1             -2.9358954267       26.6692972862       35.8248282219  TIP3      2461            0.0000000000
     29703      2653  TIP3      H2             -2.3149667742       25.3389120698       36.1747695748  TIP3      2461            0.0000000000
     29704      2654  TIP3      OH2           -14.8848867734       32.6024023165       34.6506728939  TIP3      2462            0.0000000000
     29705      2654  TIP3      H1            -14.8892125177       32.0226868528       35.4287008931  TIP3      2462            0.0000000000
     29706      2654  TIP3      H2            -15.7689474135       32.4336269054       34.2679733001  TIP3      2462            0.0000000000
     29707      2655  TIP3      OH2           -12.2106609870       21.4923770529       30.5966731073  TIP3      2463            0.0000000000
     29708      2655  TIP3      H1            -13.1245426170       21.3632396510       30.2556630938  TIP3      2463            0.0000000000
     29709      2655  TIP3      H2            -12.4340662970       22.0320735548       31.3832932898  TIP3      2463            0.0000000000
     29710      2656  TIP3      OH2            -7.3353721968       20.7656131100       33.7928338852  TIP3      2464            0.0000000000
     29711      2656  TIP3      H1             -6.9049150669       20.3531133475       34.5762976833  TIP3      2464            0.0000000000
     29712      2656  TIP3      H2             -8.2816602696       20.7891144905       34.0509674491  TIP3      2464            0.0000000000
     29713      2657  TIP3      OH2            -4.8620260682       25.0672673983       35.0307021422  TIP3      2465            0.0000000000
     29714      2657  TIP3      H1             -5.4689036244       24.8124450197       35.7735864604  TIP3      2465            0.0000000000
     29715      2657  TIP3      H2             -5.4506610682       25.6585331449       34.5290122125  TIP3      2465            0.0000000000
     29716      2658  TIP3      OH2            -7.9815021165       22.8690861302       21.8851734774  TIP3      2466            0.0000000000
     29717      2658  TIP3      H1             -8.6487199876       22.9178320085       22.5964976255  TIP3      2466            0.0000000000
     29718      2658  TIP3      H2             -8.3872333470       23.3920893824       21.1892025473  TIP3      2466            0.0000000000
     29719      2659  TIP3      OH2           -12.0505219901       25.9807147122       31.8181562811  TIP3      2467            0.0000000000
     29720      2659  TIP3      H1            -12.8843811070       26.2704584367       32.2402901140  TIP3      2467            0.0000000000
     29721      2659  TIP3      H2            -11.6698738120       26.8533439129       31.5373083268  TIP3      2467            0.0000000000
     29722      2660  TIP3      OH2           -12.7000255559       26.3740662043       26.9344287133  TIP3      2468            0.0000000000
     29723      2660  TIP3      H1            -13.5969979617       26.0700400128       26.6880580646  TIP3      2468            0.0000000000
     29724      2660  TIP3      H2            -12.1970240013       26.2079942131       26.1108310295  TIP3      2468            0.0000000000
     29725      2661  TIP3      OH2            -6.8112095660       27.2174517642       25.8705403321  TIP3      2469            0.0000000000
     29726      2661  TIP3      H1             -7.0511656956       27.9364077131       25.2444770092  TIP3      2469            0.0000000000
     29727      2661  TIP3      H2             -6.1284373937       26.7838241181       25.3477419869  TIP3      2469            0.0000000000
     29728      2662  TIP3      OH2            -7.6758539312       27.1547177898       36.9335050783  TIP3      2470            0.0000000000
     29729      2662  TIP3      H1             -8.1298114913       26.3873279900       37.3329467484  TIP3      2470            0.0000000000
     29730      2662  TIP3      H2             -6.8381203178       27.1273051124       37.4335160913  TIP3      2470            0.0000000000
     29731      2663  TIP3      OH2            -5.3693756135       26.6142070827       28.5339489796  TIP3      2471            0.0000000000
     29732      2663  TIP3      H1             -5.7375005636       27.4600239318       28.2135290845  TIP3      2471            0.0000000000
     29733      2663  TIP3      H2             -5.7353634731       26.0079523240       27.8778724583  TIP3      2471            0.0000000000
     29734      2664  TIP3      OH2           -14.5368278549       26.2043440863       32.9239025106  TIP3      2472            0.0000000000
     29735      2664  TIP3      H1            -14.2574138428       26.5757579843       33.7718946043  TIP3      2472            0.0000000000
     29736      2664  TIP3      H2            -14.9994473774       25.3977095034       33.2127102094  TIP3      2472            0.0000000000
     29737      2665  TIP3      OH2           -11.6796145083       23.0048655713       20.4937394002  TIP3      2473            0.0000000000
     29738      2665  TIP3      H1            -11.8709216217       22.5656662514       21.3483224894  TIP3      2473            0.0000000000
     29739      2665  TIP3      H2            -11.5771830194       23.9181148707       20.8056046537  TIP3      2473            0.0000000000
     29740      2666  TIP3      OH2           -17.8398444828       23.6571337351       27.9546779509  TIP3      2474            0.0000000000
     29741      2666  TIP3      H1            -17.2014641919       23.5274362556       28.6778291240  TIP3      2474            0.0000000000
     29742      2666  TIP3      H2            -17.2732099259       23.9390122630       27.2221864199  TIP3      2474            0.0000000000
     29743      2667  TIP3      OH2           -16.8329194081       24.4720664867       23.1019982681  TIP3      2475            0.0000000000
     29744      2667  TIP3      H1            -16.0781427564       24.5758164081       22.5105455785  TIP3      2475            0.0000000000
     29745      2667  TIP3      H2            -17.5716043616       24.4847341324       22.4770253296  TIP3      2475            0.0000000000
     29746      2668  TIP3      OH2            -6.6182392758       28.0289245623       32.6675360501  TIP3      2476            0.0000000000
     29747      2668  TIP3      H1             -6.0031996652       27.4425063134       32.1829156404  TIP3      2476            0.0000000000
     29748      2668  TIP3      H2             -7.0576751483       27.3737242114       33.2582202054  TIP3      2476            0.0000000000
     29749      2669  TIP3      OH2            -9.3328233673       23.5283626490       27.7065904838  TIP3      2477            0.0000000000
     29750      2669  TIP3      H1            -10.2856510319       23.3049162702       27.7848284651  TIP3      2477            0.0000000000
     29751      2669  TIP3      H2             -8.9935220505       23.3187731993       28.5831664795  TIP3      2477            0.0000000000
     29752      2670  TIP3      OH2           -15.0512106398       24.9935357797       26.6357452683  TIP3      2478            0.0000000000
     29753      2670  TIP3      H1            -15.7085359738       25.2925039213       25.9833360809  TIP3      2478            0.0000000000
     29754      2670  TIP3      H2            -14.6844003029       24.1770733710       26.2315839106  TIP3      2478            0.0000000000
     29755      2671  TIP3      OH2           -11.4067565397       25.5935442250       24.6867762590  TIP3      2479            0.0000000000
     29756      2671  TIP3      H1            -10.4947592495       25.5925692712       24.3623885713  TIP3      2479            0.0000000000
     29757      2671  TIP3      H2            -11.8361973076       26.0455755987       23.9169879052  TIP3      2479            0.0000000000
     29758      2672  TIP3      OH2            -5.4144127579       23.2111911092       30.9086910853  TIP3      2480            0.0000000000
     29759      2672  TIP3      H1             -6.1373613446       23.0407268221       31.5388740921  TIP3      2480            0.0000000000
     29760      2672  TIP3      H2             -5.4659787543       22.4615341352       30.2866309383  TIP3      2480            0.0000000000
     29761      2673  TIP3      OH2           -14.4591707744       30.9731876629       36.8603926339  TIP3      2481            0.0000000000
     29762      2673  TIP3      H1            -13.8061672926       31.3822719884       37.4597642008  TIP3      2481            0.0000000000
     29763      2673  TIP3      H2            -15.3006156092       31.0351120593       37.3694374499  TIP3      2481            0.0000000000
     29764      2674  TIP3      OH2            -9.0563701098       26.6136447547       29.0677555452  TIP3      2482            0.0000000000
     29765      2674  TIP3      H1             -8.1419227852       26.3185458919       29.2085866035  TIP3      2482            0.0000000000
     29766      2674  TIP3      H2             -9.5694058146       26.0166182958       29.6345362640  TIP3      2482            0.0000000000
     29767      2675  TIP3      OH2           -13.8193263018       22.5361518677       26.1508604503  TIP3      2483            0.0000000000
     29768      2675  TIP3      H1            -14.3829558671       21.9674972565       26.7240384951  TIP3      2483            0.0000000000
     29769      2675  TIP3      H2            -13.5294491476       21.8863820719       25.4948558577  TIP3      2483            0.0000000000
     29770      2676  TIP3      OH2            -9.7365115994       24.6762419435       31.8654123560  TIP3      2484            0.0000000000
     29771      2676  TIP3      H1            -10.5893709918       25.1576065890       31.7748520589  TIP3      2484            0.0000000000
     29772      2676  TIP3      H2             -9.2019967217       25.3071615287       32.3766437840  TIP3      2484            0.0000000000
     29773      2677  TIP3      OH2            -9.2241828912       31.1785951574       23.7438304985  TIP3      2485            0.0000000000
     29774      2677  TIP3      H1             -9.9150131233       30.6525541058       23.3090294038  TIP3      2485            0.0000000000
     29775      2677  TIP3      H2             -9.6348967162       31.5419991775       24.5665118339  TIP3      2485            0.0000000000
     29776      2678  TIP3      OH2            -1.7462241859       30.8131491403       32.6079410529  TIP3      2486            0.0000000000
     29777      2678  TIP3      H1             -1.3146281831       31.3776601955       31.9118827562  TIP3      2486            0.0000000000
     29778      2678  TIP3      H2             -2.6129752920       30.6631649905       32.1924393903  TIP3      2486            0.0000000000
     29779      2679  TIP3      OH2            -7.2116169623       31.7609359057       35.2156497667  TIP3      2487            0.0000000000
     29780      2679  TIP3      H1             -7.8203335847       31.0294813155       35.3994021898  TIP3      2487            0.0000000000
     29781      2679  TIP3      H2             -7.7647649161       32.5459379752       35.3263304328  TIP3      2487            0.0000000000
     29782      2680  TIP3      OH2            -4.2652918316       25.8647027869       23.6610827465  TIP3      2488            0.0000000000
     29783      2680  TIP3      H1             -3.5805608199       26.1162830177       24.2938889342  TIP3      2488            0.0000000000
     29784      2680  TIP3      H2             -4.3520818705       26.6705931396       23.1056704767  TIP3      2488            0.0000000000
     29785      2681  TIP3      OH2           -14.5726161131       30.1284713248       28.4063668710  TIP3      2489            0.0000000000
     29786      2681  TIP3      H1            -13.7814642786       30.4024380977       27.9066265178  TIP3      2489            0.0000000000
     29787      2681  TIP3      H2            -14.2603162199       30.2848307477       29.3213860017  TIP3      2489            0.0000000000
     29788      2682  TIP3      OH2            -7.1689569950       32.7717204202       23.0619397569  TIP3      2490            0.0000000000
     29789      2682  TIP3      H1             -7.6403038000       33.5743633982       23.3710001970  TIP3      2490            0.0000000000
     29790      2682  TIP3      H2             -7.8694028708       32.0782068970       23.1237817117  TIP3      2490            0.0000000000
     29791      2683  TIP3      OH2           -17.4293162330       28.9426421165       34.9541525418  TIP3      2491            0.0000000000
     29792      2683  TIP3      H1            -17.3451853807       28.1874371984       35.5716374489  TIP3      2491            0.0000000000
     29793      2683  TIP3      H2            -17.6660014441       28.5190861172       34.0989056530  TIP3      2491            0.0000000000
     29794      2684  TIP3      OH2            -9.9953330935       28.5365821545       36.4492292943  TIP3      2492            0.0000000000
     29795      2684  TIP3      H1            -10.5506231675       27.9081229391       35.9506080655  TIP3      2492            0.0000000000
     29796      2684  TIP3      H2             -9.1348366959       28.0618125274       36.5164062767  TIP3      2492            0.0000000000
     29797      2685  TIP3      OH2            -5.3300636262       34.2731287227       34.8795985811  TIP3      2493            0.0000000000
     29798      2685  TIP3      H1             -6.1793562440       33.9543927633       34.5580763693  TIP3      2493            0.0000000000
     29799      2685  TIP3      H2             -5.5580383006       34.4274825680       35.8204404849  TIP3      2493            0.0000000000
     29800      2686  TIP3      OH2             0.3256705825       32.1959316189       35.9608503964  TIP3      2494            0.0000000000
     29801      2686  TIP3      H1             -0.6542447270       32.2466299153       35.9124098386  TIP3      2494            0.0000000000
     29802      2686  TIP3      H2              0.5389062922       32.1576000949       35.0057178958  TIP3      2494            0.0000000000
     29803      2687  TIP3      OH2            -0.9823257997       34.4548370457       23.4159039243  TIP3      2495            0.0000000000
     29804      2687  TIP3      H1             -1.7549392234       34.5934138604       23.9797069644  TIP3      2495            0.0000000000
     29805      2687  TIP3      H2             -1.1059308598       35.0784497604       22.6811330326  TIP3      2495            0.0000000000
     29806      2688  TIP3      OH2            -4.1087838786       29.7956551449       30.6875755195  TIP3      2496            0.0000000000
     29807      2688  TIP3      H1             -4.9670186993       29.3877274878       30.5025773372  TIP3      2496            0.0000000000
     29808      2688  TIP3      H2             -3.5156060807       29.3008573661       30.0769468903  TIP3      2496            0.0000000000
     29809      2689  TIP3      OH2           -11.7040650762       34.3093922968       26.6594734270  TIP3      2497            0.0000000000
     29810      2689  TIP3      H1            -11.8289524358       35.1095974761       26.0997040697  TIP3      2497            0.0000000000
     29811      2689  TIP3      H2            -12.5803970611       34.1911760723       27.0374452624  TIP3      2497            0.0000000000
     29812      2690  TIP3      OH2           -10.1409749873       32.0332221068       26.1701092286  TIP3      2498            0.0000000000
     29813      2690  TIP3      H1            -10.6406243858       32.8493819722       26.3642496555  TIP3      2498            0.0000000000
     29814      2690  TIP3      H2            -10.6529098905       31.3516726182       26.6582347178  TIP3      2498            0.0000000000
     29815      2691  TIP3      OH2            -9.7067339350       35.2375978597       32.5548780887  TIP3      2499            0.0000000000
     29816      2691  TIP3      H1             -9.5162518337       36.1903403658       32.5860744269  TIP3      2499            0.0000000000
     29817      2691  TIP3      H2             -9.2234633895       34.9184303263       33.3454452296  TIP3      2499            0.0000000000
     29818      2692  TIP3      OH2           -12.0613487296      -36.7520247192       25.5346925651  TIP3      2500            0.0000000000
     29819      2692  TIP3      H1            -12.6579750565      -36.5956934101       26.2701419917  TIP3      2500            0.0000000000
     29820      2692  TIP3      H2            -11.2802807868      -36.2889840978       25.9058739853  TIP3      2500            0.0000000000
     29821      2693  TIP3      OH2            -6.6747322037       31.8213233666       32.3993587529  TIP3      2501            0.0000000000
     29822      2693  TIP3      H1             -6.6485831077       31.6514937068       33.3659758889  TIP3      2501            0.0000000000
     29823      2693  TIP3      H2             -6.4230623325       30.9584633822       32.0273848472  TIP3      2501            0.0000000000
     29824      2694  TIP3      OH2            -3.8532561249       32.8673083322       21.6852735666  TIP3      2502            0.0000000000
     29825      2694  TIP3      H1             -3.6213120747       32.2514861764       22.4113410056  TIP3      2502            0.0000000000
     29826      2694  TIP3      H2             -4.6474726035       33.2574710303       22.0634288638  TIP3      2502            0.0000000000
     29827      2695  TIP3      OH2            -3.4974661219       36.2652172072       34.8040540192  TIP3      2503            0.0000000000
     29828      2695  TIP3      H1             -4.2669424232       35.6501192188       34.6822733728  TIP3      2503            0.0000000000
     29829      2695  TIP3      H2             -3.8092332458       37.1111384740       34.4407626044  TIP3      2503            0.0000000000
     29830      2696  TIP3      OH2           -15.1610518564       23.8898234290       34.4127217377  TIP3      2504            0.0000000000
     29831      2696  TIP3      H1            -15.8667648325       24.2778843713       34.9752546043  TIP3      2504            0.0000000000
     29832      2696  TIP3      H2            -15.2725119074       22.9460233327       34.6271984510  TIP3      2504            0.0000000000
     29833      2697  TIP3      OH2            -3.1754399535       31.6217497290       23.9629044235  TIP3      2505            0.0000000000
     29834      2697  TIP3      H1             -3.1646361429       30.7350101201       24.3751896312  TIP3      2505            0.0000000000
     29835      2697  TIP3      H2             -2.2204235084       31.7892523648       23.8619816203  TIP3      2505            0.0000000000
     29836      2698  TIP3      OH2           -15.7989113830       35.3938494792       32.9820457223  TIP3      2506            0.0000000000
     29837      2698  TIP3      H1            -15.1898994044       35.2237489932       33.7089350421  TIP3      2506            0.0000000000
     29838      2698  TIP3      H2            -16.0947750520       36.3208054397       33.1008882200  TIP3      2506            0.0000000000
     29839      2699  TIP3      OH2            -6.6540411884       23.3548973792       33.4419053189  TIP3      2507            0.0000000000
     29840      2699  TIP3      H1             -5.8847664281       23.4673615677       34.0149449712  TIP3      2507            0.0000000000
     29841      2699  TIP3      H2             -6.9277114890       22.4347332174       33.6436488803  TIP3      2507            0.0000000000
     29842      2700  TIP3      OH2            -6.0616290277       22.8852331676       24.4466720629  TIP3      2508            0.0000000000
     29843      2700  TIP3      H1             -6.2175103327       23.4100060603       23.6543755213  TIP3      2508            0.0000000000
     29844      2700  TIP3      H2             -5.3378449024       23.3628839553       24.8722088325  TIP3      2508            0.0000000000
     29845      2701  TIP3      OH2            -8.4406848272       34.9617318729       24.4798520898  TIP3      2509            0.0000000000
     29846      2701  TIP3      H1             -9.1394234262       35.4905356142       24.8972796041  TIP3      2509            0.0000000000
     29847      2701  TIP3      H2             -8.5108871037       35.2525130798       23.5413944816  TIP3      2509            0.0000000000
     29848      2702  TIP3      OH2            -8.2889599060       24.7838911812       25.5413565550  TIP3      2510            0.0000000000
     29849      2702  TIP3      H1             -7.9293062053       25.6614171112       25.7653938118  TIP3      2510            0.0000000000
     29850      2702  TIP3      H2             -8.5620874427       24.4407193909       26.4186545450  TIP3      2510            0.0000000000
     29851      2703  TIP3      OH2            -7.5287506127       25.9105884998       34.2211059519  TIP3      2511            0.0000000000
     29852      2703  TIP3      H1             -7.6515486614       26.0510147714       35.1821076798  TIP3      2511            0.0000000000
     29853      2703  TIP3      H2             -7.4005377989       24.9409597059       34.1266324643  TIP3      2511            0.0000000000
     29854      2704  TIP3      OH2            -7.8007839939       21.6046515922       26.0188385174  TIP3      2512            0.0000000000
     29855      2704  TIP3      H1             -8.2933078220       22.3741962220       26.3359027237  TIP3      2512            0.0000000000
     29856      2704  TIP3      H2             -7.0339175242       22.0422220114       25.5512949498  TIP3      2512            0.0000000000
     29857      2705  TIP3      OH2           -12.2927207918       23.0795879760       23.1468097801  TIP3      2513            0.0000000000
     29858      2705  TIP3      H1            -12.3175711336       23.9412836934       23.5902133325  TIP3      2513            0.0000000000
     29859      2705  TIP3      H2            -11.4306836925       22.7452913664       23.4821188052  TIP3      2513            0.0000000000
     29860      2706  TIP3      OH2            -2.1668616803       23.8758811500       35.2295815466  TIP3      2514            0.0000000000
     29861      2706  TIP3      H1             -3.1320516829       24.0339103227       35.2052575198  TIP3      2514            0.0000000000
     29862      2706  TIP3      H2             -1.9231150115       23.9376342212       34.2906276259  TIP3      2514            0.0000000000
     29863      2707  TIP3      OH2            -3.0423998071       27.8441747906       29.1377336600  TIP3      2515            0.0000000000
     29864      2707  TIP3      H1             -3.8134323446       27.2337131402       29.1390923880  TIP3      2515            0.0000000000
     29865      2707  TIP3      H2             -2.3628852118       27.3099880364       29.6074136074  TIP3      2515            0.0000000000
     29866      2708  TIP3      OH2           -14.7917095054       20.8857113811       30.1106736987  TIP3      2516            0.0000000000
     29867      2708  TIP3      H1            -14.8527652972       20.7189197860       29.1447888533  TIP3      2516            0.0000000000
     29868      2708  TIP3      H2            -15.0469429233       19.9974431232       30.4495032819  TIP3      2516            0.0000000000
     29869      2709  TIP3      OH2           -16.0049961561       34.7275351723       26.3858584320  TIP3      2517            0.0000000000
     29870      2709  TIP3      H1            -16.9464431654       34.6071452439       26.5854805402  TIP3      2517            0.0000000000
     29871      2709  TIP3      H2            -16.0995635253       35.0435197559       25.4645112693  TIP3      2517            0.0000000000
     29872      2710  TIP3      OH2           -11.7526504616       35.6589414746       39.4979469700  TIP3      2518            0.0000000000
     29873      2710  TIP3      H1            -11.0417141946       36.3058852683       39.3130140411  TIP3      2518            0.0000000000
     29874      2710  TIP3      H2            -11.9854517484       35.3363984161       38.6113846964  TIP3      2518            0.0000000000
     29875      2711  TIP3      OH2            -8.5898030370       35.5660698037       21.6975227312  TIP3      2519            0.0000000000
     29876      2711  TIP3      H1             -9.3410097275       35.9484923204       21.2162449353  TIP3      2519            0.0000000000
     29877      2711  TIP3      H2             -7.8150229877       35.7000152665       21.1374964488  TIP3      2519            0.0000000000
     29878      2712  TIP3      OH2            -5.8858568144       34.9469953436       37.5722736052  TIP3      2520            0.0000000000
     29879      2712  TIP3      H1             -6.1264072865       34.0581150378       37.9248878632  TIP3      2520            0.0000000000
     29880      2712  TIP3      H2             -4.9972483843       35.0208121242       37.9854956547  TIP3      2520            0.0000000000
     29881      2713  TIP3      OH2            -2.1657331198       34.5827379320       20.2950716695  TIP3      2521            0.0000000000
     29882      2713  TIP3      H1             -2.7327688889       34.0195050898       20.8514176425  TIP3      2521            0.0000000000
     29883      2713  TIP3      H2             -2.2323546833       35.4492273567       20.7672345469  TIP3      2521            0.0000000000
     29884      2714  TIP3      OH2           -16.9949086821       31.1167698931       37.9754985659  TIP3      2522            0.0000000000
     29885      2714  TIP3      H1            -17.4628059641       30.2670128721       37.9876423245  TIP3      2522            0.0000000000
     29886      2714  TIP3      H2            -17.4541929911       31.6082741114       37.2474764478  TIP3      2522            0.0000000000
     29887      2715  TIP3      OH2           -10.0469066708       31.0831968331       37.0776056896  TIP3      2523            0.0000000000
     29888      2715  TIP3      H1            -10.3888510620       31.7123639778       36.4221421187  TIP3      2523            0.0000000000
     29889      2715  TIP3      H2            -10.0791736248       30.2021974890       36.6198721687  TIP3      2523            0.0000000000
     29890      2716  TIP3      OH2            -4.5340949194       30.9993849317       34.8694300361  TIP3      2524            0.0000000000
     29891      2716  TIP3      H1             -3.7358285409       31.5765953151       34.9221820959  TIP3      2524            0.0000000000
     29892      2716  TIP3      H2             -5.2294688734       31.5661315589       35.2746829430  TIP3      2524            0.0000000000
     29893      2717  TIP3      OH2           -15.8522111559       28.1852463539       37.6076538584  TIP3      2525            0.0000000000
     29894      2717  TIP3      H1            -15.0419318500       27.6727664379       37.7077327098  TIP3      2525            0.0000000000
     29895      2717  TIP3      H2            -15.6445533300       28.9552323061       38.1773002027  TIP3      2525            0.0000000000
     29896      2718  TIP3      OH2           -11.7287865008       27.4677841191       34.6316263973  TIP3      2526            0.0000000000
     29897      2718  TIP3      H1            -12.4316463138       28.1367219131       34.4799680673  TIP3      2526            0.0000000000
     29898      2718  TIP3      H2            -11.0913697121       27.7604490872       33.9410187849  TIP3      2526            0.0000000000
     29899      2719  TIP3      OH2            -6.5855121498       30.1038757931       38.2967446725  TIP3      2527            0.0000000000
     29900      2719  TIP3      H1             -5.9612960015       29.5637965673       37.7824731139  TIP3      2527            0.0000000000
     29901      2719  TIP3      H2             -7.0566332912       29.4458605670       38.8342485393  TIP3      2527            0.0000000000
     29902      2720  TIP3      OH2           -10.9809217307       25.1298629922       35.6117833663  TIP3      2528            0.0000000000
     29903      2720  TIP3      H1            -10.9263945588       24.5024981223       34.8628270440  TIP3      2528            0.0000000000
     29904      2720  TIP3      H2            -11.2172020660       25.9650623838       35.1400443340  TIP3      2528            0.0000000000
     29905      2721  TIP3      OH2           -10.9698936279       22.9671122275       33.4751852272  TIP3      2529            0.0000000000
     29906      2721  TIP3      H1            -10.4706808403       23.4270134323       32.7615010151  TIP3      2529            0.0000000000
     29907      2721  TIP3      H2            -11.8839805123       23.0874791967       33.1471935109  TIP3      2529            0.0000000000
     29908      2722  TIP3      OH2            -9.4745961787       28.5535542532       33.4342935321  TIP3      2530            0.0000000000
     29909      2722  TIP3      H1             -8.5808408584       28.7797616731       33.1723790326  TIP3      2530            0.0000000000
     29910      2722  TIP3      H2             -9.9492676504       29.4013132453       33.2616023610  TIP3      2530            0.0000000000
     29911      2723  TIP3      OH2            -5.5580298398       26.5663469888       38.7869819701  TIP3      2531            0.0000000000
     29912      2723  TIP3      H1             -5.4840180319       25.6814000312       39.2006023707  TIP3      2531            0.0000000000
     29913      2723  TIP3      H2             -4.6266367889       26.8141220858       38.7113255219  TIP3      2531            0.0000000000
     29914      2724  TIP3      OH2            -3.7710358357       29.5462553268       37.1174584874  TIP3      2532            0.0000000000
     29915      2724  TIP3      H1             -4.1080382873       30.0634751218       36.3643044570  TIP3      2532            0.0000000000
     29916      2724  TIP3      H2             -2.8411803960       29.4603411021       36.8389791440  TIP3      2532            0.0000000000
     29917      2725  TIP3      OH2           -12.7857948853       25.9465433799       37.7714611587  TIP3      2533            0.0000000000
     29918      2725  TIP3      H1            -13.5754483667       25.4743860740       37.4456352867  TIP3      2533            0.0000000000
     29919      2725  TIP3      H2            -12.1424161980       25.8262863518       37.0496708130  TIP3      2533            0.0000000000
     29920      2726  TIP3      OH2           -10.0918420367       20.4957697114       33.8176679455  TIP3      2534            0.0000000000
     29921      2726  TIP3      H1            -10.3730827910       21.4397234049       33.8019585493  TIP3      2534            0.0000000000
     29922      2726  TIP3      H2            -10.8295425271       20.0882690527       33.3531108569  TIP3      2534            0.0000000000
     29923      2727  TIP3      OH2            -9.1278110629       24.7999559185       37.7867712467  TIP3      2535            0.0000000000
     29924      2727  TIP3      H1             -9.7800528775       24.6804015311       38.5055914185  TIP3      2535            0.0000000000
     29925      2727  TIP3      H2             -9.7102611894       24.7149600837       37.0058917149  TIP3      2535            0.0000000000
     29926      2728  TIP3      OH2            -6.6405021514       24.2454968667       36.8538641484  TIP3      2536            0.0000000000
     29927      2728  TIP3      H1             -7.5746050328       24.2488355424       37.1644698274  TIP3      2536            0.0000000000
     29928      2728  TIP3      H2             -6.2451046967       23.6267703553       37.5163118469  TIP3      2536            0.0000000000
     29929      2729  TIP3      OH2            -5.3870137595       22.4691884422       38.5073823603  TIP3      2537            0.0000000000
     29930      2729  TIP3      H1             -4.8871790840       21.6315167986       38.5934799614  TIP3      2537            0.0000000000
     29931      2729  TIP3      H2             -5.1000772327       22.9760097560       39.3018818569  TIP3      2537            0.0000000000
     29932      2730  TIP3      OH2           -14.9969747266       24.2190413354       37.7455637175  TIP3      2538            0.0000000000
     29933      2730  TIP3      H1            -14.9217973763       23.4164532225       37.1990886387  TIP3      2538            0.0000000000
     29934      2730  TIP3      H2            -15.1349189660       23.8229488809       38.6426589894  TIP3      2538            0.0000000000
     29935      2731  TIP3      OH2           -10.5391957928       19.9508822085       36.4821676605  TIP3      2539            0.0000000000
     29936      2731  TIP3      H1             -9.7017045725       19.4609123988       36.5414360601  TIP3      2539            0.0000000000
     29937      2731  TIP3      H2            -10.5759520542       20.0386352811       35.5052654658  TIP3      2539            0.0000000000
     29938      2732  TIP3      OH2           -10.2999410915       21.1702966827       39.1638391667  TIP3      2540            0.0000000000
     29939      2732  TIP3      H1            -10.4265496405       20.7905508271       38.2664417657  TIP3      2540            0.0000000000
     29940      2732  TIP3      H2            -10.4378808110       22.1157170298       38.9844277694  TIP3      2540            0.0000000000
     29941      2733  TIP3      OH2           -17.4364972519       37.1203526632       28.1704265798  TIP3      2541            0.0000000000
     29942      2733  TIP3      H1            -17.6837481400       36.2803563634       28.5869646883  TIP3      2541            0.0000000000
     29943      2733  TIP3      H2            -16.6643293905       37.3913761437       28.6935314361  TIP3      2541            0.0000000000
     29944      2734  TIP3      OH2            -1.3106287295       32.5539092646       38.9640218914  TIP3      2542            0.0000000000
     29945      2734  TIP3      H1             -2.2076162021       32.6900385118       39.3358678305  TIP3      2542            0.0000000000
     29946      2734  TIP3      H2             -0.8977833408       33.4317637930       39.1250352659  TIP3      2542            0.0000000000
     29947      2735  TIP3      OH2            -0.3505627959       30.5867085225       23.9448527797  TIP3      2543            0.0000000000
     29948      2735  TIP3      H1              0.3467175830       31.2673856598       23.8920354561  TIP3      2543            0.0000000000
     29949      2735  TIP3      H2             -0.3022716964       30.3189314395       24.8878654751  TIP3      2543            0.0000000000
     29950      2736  TIP3      OH2             0.2142687912       29.3045153448       26.2586755751  TIP3      2544            0.0000000000
     29951      2736  TIP3      H1             -0.5697582334       28.7969992312       26.5634565987  TIP3      2544            0.0000000000
     29952      2736  TIP3      H2              0.7753650816       29.3227041265       27.0700290055  TIP3      2544            0.0000000000
     29953      2737  TIP3      OH2            -0.2309317921       31.9671074460       30.8016851151  TIP3      2545            0.0000000000
     29954      2737  TIP3      H1              0.4027207539       31.2739709096       30.5244981997  TIP3      2545            0.0000000000
     29955      2737  TIP3      H2              0.2354126713       32.7837097197       30.5333901604  TIP3      2545            0.0000000000
     29956      2738  TIP3      OH2            -1.3818614053       34.8905536319       33.6093910697  TIP3      2546            0.0000000000
     29957      2738  TIP3      H1             -2.2132010509       35.3058791300       33.9060017684  TIP3      2546            0.0000000000
     29958      2738  TIP3      H2             -1.6360780057       34.6743660614       32.6836739203  TIP3      2546            0.0000000000
     29959      2739  TIP3      OH2             0.5378015279       28.8897285043       21.7200604521  TIP3      2547            0.0000000000
     29960      2739  TIP3      H1              0.3266084828       29.6576072978       21.1594664804  TIP3      2547            0.0000000000
     29961      2739  TIP3      H2              0.3672373820       29.2427059312       22.6155072528  TIP3      2547            0.0000000000
     29962      2740  TIP3      OH2            -1.8310538432       27.6086398206       26.7683324997  TIP3      2548            0.0000000000
     29963      2740  TIP3      H1             -2.0643845870       26.6861578948       26.5155727298  TIP3      2548            0.0000000000
     29964      2740  TIP3      H2             -2.2612288327       27.6796853044       27.6552743124  TIP3      2548            0.0000000000
     29965      2741  TIP3      OH2           -17.1306313312       30.0074462121       30.6801419077  TIP3      2549            0.0000000000
     29966      2741  TIP3      H1            -17.3253972074       29.6425557547       29.7896355415  TIP3      2549            0.0000000000
     29967      2741  TIP3      H2            -16.2128618526       29.6610094485       30.7598827477  TIP3      2549            0.0000000000
     29968      2742  TIP3      OH2            -0.9063695285       29.6140602617       36.4441590970  TIP3      2550            0.0000000000
     29969      2742  TIP3      H1             -0.4268562081       28.7663015483       36.2983365296  TIP3      2550            0.0000000000
     29970      2742  TIP3      H2             -0.2956416584       30.2465389614       36.0101235272  TIP3      2550            0.0000000000
     29971      2743  TIP3      OH2             0.2011479145       27.0089409001       36.6962847826  TIP3      2551            0.0000000000
     29972      2743  TIP3      H1             -0.7404694027       26.7253448888       36.6671533622  TIP3      2551            0.0000000000
     29973      2743  TIP3      H2              0.6970155642       26.1471513746       36.7040300498  TIP3      2551            0.0000000000
     29974      2744  TIP3      OH2            -2.2875343613       25.2493936766       25.6734364938  TIP3      2552            0.0000000000
     29975      2744  TIP3      H1             -2.2060207712       24.2784963282       25.6785375182  TIP3      2552            0.0000000000
     29976      2744  TIP3      H2             -1.6059800136       25.4716570790       25.0280850514  TIP3      2552            0.0000000000
     29977      2745  TIP3      OH2            -1.3739353075       26.1058282306       30.4145542173  TIP3      2553            0.0000000000
     29978      2745  TIP3      H1             -0.3891134705       26.0536578855       30.5310628110  TIP3      2553            0.0000000000
     29979      2745  TIP3      H2             -1.6512052116       26.0842403301       31.3515067282  TIP3      2553            0.0000000000
     29980      2746  TIP3      OH2            -1.4686889496       26.5470710411       33.0393437609  TIP3      2554            0.0000000000
     29981      2746  TIP3      H1             -2.2405744052       26.8875270095       33.5391233848  TIP3      2554            0.0000000000
     29982      2746  TIP3      H2             -1.0796648658       27.3985950485       32.7351672090  TIP3      2554            0.0000000000
     29983      2747  TIP3      OH2           -17.1750972659       24.7380305608       36.4261763953  TIP3      2555            0.0000000000
     29984      2747  TIP3      H1            -16.4282005818       24.7544773960       37.0604548222  TIP3      2555            0.0000000000
     29985      2747  TIP3      H2            -17.6592790770       23.9364375803       36.7331530467  TIP3      2555            0.0000000000
     29986      2748  TIP3      OH2             0.5142246303       20.8547362024       38.3583037324  TIP3      2556            0.0000000000
     29987      2748  TIP3      H1              1.0256812179       20.1657166629       37.8803133558  TIP3      2556            0.0000000000
     29988      2748  TIP3      H2              0.4473034161       21.5284279261       37.6431006395  TIP3      2556            0.0000000000
     29989      2749  TIP3      OH2            -1.3790290489       22.7145317763       24.8894652813  TIP3      2557            0.0000000000
     29990      2749  TIP3      H1             -1.2531559713       22.4135904597       25.8187421976  TIP3      2557            0.0000000000
     29991      2749  TIP3      H2             -1.9632147516       22.0072819806       24.5362912132  TIP3      2557            0.0000000000
     29992      2750  TIP3      OH2           -16.3378142386       23.0994961936       30.3687952942  TIP3      2558            0.0000000000
     29993      2750  TIP3      H1            -15.8031069123       22.2746742710       30.2729270663  TIP3      2558            0.0000000000
     29994      2750  TIP3      H2            -15.6484142327       23.7868625293       30.3096530201  TIP3      2558            0.0000000000
     29995      2751  TIP3      OH2           -17.8629357381       26.3127309129       30.8000995494  TIP3      2559            0.0000000000
     29996      2751  TIP3      H1            -17.3378974868       26.0325895307       30.0099635215  TIP3      2559            0.0000000000
     29997      2751  TIP3      H2            -17.2738455804       26.9800046064       31.1736470244  TIP3      2559            0.0000000000
     29998      2752  TIP3      OH2            -0.0621467198       22.9421732219       36.8684116299  TIP3      2560            0.0000000000
     29999      2752  TIP3      H1             -0.8000246218       23.2294448790       37.4452962079  TIP3      2560            0.0000000000
     30000      2752  TIP3      H2             -0.5360671806       22.6481260119       36.0689307529  TIP3      2560            0.0000000000
     30001      2753  TIP3      OH2           -17.3483858427       22.9034400630       25.2689183513  TIP3      2561            0.0000000000
     30002      2753  TIP3      H1            -18.2961630013       22.7376211535       25.1389007194  TIP3      2561            0.0000000000
     30003      2753  TIP3      H2            -17.1702883509       23.5635715918       24.5710764518  TIP3      2561            0.0000000000
     30004      2754  TIP3      OH2           -17.5993055348       21.0734343104       33.1941955162  TIP3      2562            0.0000000000
     30005      2754  TIP3      H1            -18.2589996238       20.6936877436       33.8121137735  TIP3      2562            0.0000000000
     30006      2754  TIP3      H2            -18.0461276462       21.8479429801       32.8276810509  TIP3      2562            0.0000000000
     30007      2755  TIP3      OH2           -15.3509897083       34.1796700426       37.0373528542  TIP3      2563            0.0000000000
     30008      2755  TIP3      H1            -16.1433342535       34.7072237255       36.8893308784  TIP3      2563            0.0000000000
     30009      2755  TIP3      H2            -15.4075629939       33.9495203227       37.9758261700  TIP3      2563            0.0000000000
     30010      2756  TIP3      OH2           -12.3395451228       35.7370211530       33.7135854945  TIP3      2564            0.0000000000
     30011      2756  TIP3      H1            -12.9280109066       35.5920495701       32.9597056486  TIP3      2564            0.0000000000
     30012      2756  TIP3      H2            -11.6354145911       35.1036213778       33.4818664526  TIP3      2564            0.0000000000
     30013      2757  TIP3      OH2            -0.9965715486       20.4855861831       34.9410098746  TIP3      2565            0.0000000000
     30014      2757  TIP3      H1             -1.7943764078       20.9152807923       34.5899699035  TIP3      2565            0.0000000000
     30015      2757  TIP3      H2             -1.0080479072       19.6183910572       34.4925903663  TIP3      2565            0.0000000000
     30016      2758  TIP3      OH2           -13.5616970387       36.0424792438       28.3811841706  TIP3      2566            0.0000000000
     30017      2758  TIP3      H1            -13.8767786825       35.1368422786       28.5315329001  TIP3      2566            0.0000000000
     30018      2758  TIP3      H2            -12.9172491928       36.1290107822       29.1158417653  TIP3      2566            0.0000000000
     30019      2759  TIP3      OH2           -11.7450357702       35.9285814489       30.4602270112  TIP3      2567            0.0000000000
     30020      2759  TIP3      H1            -11.8362841491       35.0276240052       30.0859268331  TIP3      2567            0.0000000000
     30021      2759  TIP3      H2            -11.0296662808       35.7283842849       31.0976327646  TIP3      2567            0.0000000000
     30022      2760  TIP3      OH2            -7.9386861803       21.3102661982       29.5012367128  TIP3      2568            0.0000000000
     30023      2760  TIP3      H1             -8.8246681189       20.8894158254       29.4206821212  TIP3      2568            0.0000000000
     30024      2760  TIP3      H2             -7.6607581381       21.3992676079       28.5750248814  TIP3      2568            0.0000000000
     30025      2761  TIP3      OH2            -2.2861586235       20.1366157794       29.1735405811  TIP3      2569            0.0000000000
     30026      2761  TIP3      H1             -1.7259653936       20.7494230358       28.6460473082  TIP3      2569            0.0000000000
     30027      2761  TIP3      H2             -3.1877197936       20.3456255423       28.8304568153  TIP3      2569            0.0000000000
     30028      2762  TIP3      OH2            -0.8420919288       21.5102629623       27.3784651197  TIP3      2570            0.0000000000
     30029      2762  TIP3      H1             -0.3419946573       20.7823985336       26.9327027663  TIP3      2570            0.0000000000
     30030      2762  TIP3      H2             -0.1144649592       22.1518998412       27.5801838475  TIP3      2570            0.0000000000
     30031      2763  TIP3      OH2           -15.2097488426       20.4696835177       27.2282427267  TIP3      2571            0.0000000000
     30032      2763  TIP3      H1            -16.0022809140       20.4770518103       26.6573657625  TIP3      2571            0.0000000000
     30033      2763  TIP3      H2            -14.7974284104       19.6105134018       26.9841749207  TIP3      2571            0.0000000000
     30034      2764  TIP3      OH2           -16.4503424821       20.4073923150       23.1110699010  TIP3      2572            0.0000000000
     30035      2764  TIP3      H1            -15.9582719610       20.9608441346       22.4687574367  TIP3      2572            0.0000000000
     30036      2764  TIP3      H2            -16.9660130620       21.0427064438       23.6202089565  TIP3      2572            0.0000000000
     30037      2765  TIP3      OH2           -10.8146486778       20.7093343430       26.6429953617  TIP3      2573            0.0000000000
     30038      2765  TIP3      H1            -10.0139858036       20.5217765004       26.1327439898  TIP3      2573            0.0000000000
     30039      2765  TIP3      H2            -10.4842667655       20.6309752860       27.5556680448  TIP3      2573            0.0000000000
     30040      2766  TIP3      OH2            -4.8291335972       20.7584566875       28.3457291895  TIP3      2574            0.0000000000
     30041      2766  TIP3      H1             -4.8678490651       20.7585498232       27.3834239238  TIP3      2574            0.0000000000
     30042      2766  TIP3      H2             -5.4664017563       20.0352625803       28.5663628482  TIP3      2574            0.0000000000
     30043      2767  TIP3      OH2            -2.8347194612       20.2352249919       23.7760788909  TIP3      2575            0.0000000000
     30044      2767  TIP3      H1             -3.2089966561       20.4589567945       22.8959907056  TIP3      2575            0.0000000000
     30045      2767  TIP3      H2             -3.6245886465       19.8676150726       24.2168617810  TIP3      2575            0.0000000000
     30046      2768  TIP3      OH2           -16.8996296983       35.5450731059       23.9395317554  TIP3      2576            0.0000000000
     30047      2768  TIP3      H1            -17.2010624243       35.2774801412       23.0578479731  TIP3      2576            0.0000000000
     30048      2768  TIP3      H2            -17.0969497604       36.4967488515       23.9384803746  TIP3      2576            0.0000000000
     30049      2769  TIP3      OH2           -15.1026062187       22.0348936685       21.4379839301  TIP3      2577            0.0000000000
     30050      2769  TIP3      H1            -14.5405047725       21.5053525724       20.8554538495  TIP3      2577            0.0000000000
     30051      2769  TIP3      H2            -14.4326101953       22.4886489844       21.9577651449  TIP3      2577            0.0000000000
     30052      2770  TIP3      OH2            -9.6513267756       22.9552787327       24.0021068548  TIP3      2578            0.0000000000
     30053      2770  TIP3      H1             -9.3217062374       22.2084716973       24.5181291732  TIP3      2578            0.0000000000
     30054      2770  TIP3      H2             -9.1340127093       23.6875263394       24.4097432933  TIP3      2578            0.0000000000
     30055      2771  TIP3      OH2           -15.5196021314       21.3891653233       36.2679927973  TIP3      2579            0.0000000000
     30056      2771  TIP3      H1            -15.9948427353       20.5384131384       36.3648188813  TIP3      2579            0.0000000000
     30057      2771  TIP3      H2            -14.7679532280       21.2434808709       36.8856821672  TIP3      2579            0.0000000000
     30058      2772  TIP3      OH2           -13.5259108181       20.7161973367       38.1443884763  TIP3      2580            0.0000000000
     30059      2772  TIP3      H1            -12.7368020719       20.2479285384       37.8180931487  TIP3      2580            0.0000000000
     30060      2772  TIP3      H2            -13.9161048586       20.0164906074       38.7079721390  TIP3      2580            0.0000000000
     30061      2773  TIP3      OH2            -4.9395771729       19.8773517250       38.6205539157  TIP3      2581            0.0000000000
     30062      2773  TIP3      H1             -4.8310535565       19.4775616708       39.5126210818  TIP3      2581            0.0000000000
     30063      2773  TIP3      H2             -4.0720805070       19.6401317741       38.2224199592  TIP3      2581            0.0000000000
     30064      2774  TIP3      OH2            -2.1093335294       36.0201412522       37.0888819463  TIP3      2582            0.0000000000
     30065      2774  TIP3      H1             -2.6206926556       35.8790480712       36.2599901767  TIP3      2582            0.0000000000
     30066      2774  TIP3      H2             -1.4722541940       36.6854768305       36.7851380999  TIP3      2582            0.0000000000
     30067      2775  TIP3      OH2            13.0996584362       29.9468652868       26.7783969613  TIP3      2583            0.0000000000
     30068      2775  TIP3      H1             12.9772515275       30.9204747527       26.7467613589  TIP3      2583            0.0000000000
     30069      2775  TIP3      H2             12.3244568333       29.7184816261       26.2443380742  TIP3      2583            0.0000000000
     30070      2776  TIP3      OH2            11.9004759052       28.8157280416       30.4442956543  TIP3      2584            0.0000000000
     30071      2776  TIP3      H1             12.1104616361       28.3978594781       31.3141790349  TIP3      2584            0.0000000000
     30072      2776  TIP3      H2             11.3659126675       28.1006093627       30.0410579082  TIP3      2584            0.0000000000
     30073      2777  TIP3      OH2             3.8662376203       28.8662215968       31.5849121861  TIP3      2585            0.0000000000
     30074      2777  TIP3      H1              3.8946445155       28.0918221473       32.1836433108  TIP3      2585            0.0000000000
     30075      2777  TIP3      H2              4.3813396239       29.5132097573       32.0903769242  TIP3      2585            0.0000000000
     30076      2778  TIP3      OH2            15.0768997991       32.1422112200       29.1105876927  TIP3      2586            0.0000000000
     30077      2778  TIP3      H1             15.1349640618       31.3713217105       29.7093967554  TIP3      2586            0.0000000000
     30078      2778  TIP3      H2             15.0555199485       32.8806169454       29.7311353186  TIP3      2586            0.0000000000
     30079      2779  TIP3      OH2             5.3302300178       33.2032061267       30.6851000770  TIP3      2587            0.0000000000
     30080      2779  TIP3      H1              4.9991468943       32.5436243875       30.0433997421  TIP3      2587            0.0000000000
     30081      2779  TIP3      H2              6.2922697858       33.0935234645       30.5526394178  TIP3      2587            0.0000000000
     30082      2780  TIP3      OH2             1.5662758964       26.7252410616       25.6393083662  TIP3      2588            0.0000000000
     30083      2780  TIP3      H1              1.4135199476       27.6840519140       25.6398508432  TIP3      2588            0.0000000000
     30084      2780  TIP3      H2              0.8418315513       26.4420833745       26.2039410385  TIP3      2588            0.0000000000
     30085      2781  TIP3      OH2             1.8873588212       28.9634186630       28.2062235773  TIP3      2589            0.0000000000
     30086      2781  TIP3      H1              2.2633017575       28.0696262653       28.3730149320  TIP3      2589            0.0000000000
     30087      2781  TIP3      H2              2.6866230254       29.5116167295       28.2928997205  TIP3      2589            0.0000000000
     30088      2782  TIP3      OH2             9.9906135258       31.0615255769       30.9975715028  TIP3      2590            0.0000000000
     30089      2782  TIP3      H1             10.4582734262       30.5779221338       30.2972300519  TIP3      2590            0.0000000000
     30090      2782  TIP3      H2             10.7430125292       31.4897296882       31.4540323193  TIP3      2590            0.0000000000
     30091      2783  TIP3      OH2            18.6896446816       22.8596986089       31.5524498115  TIP3      2591            0.0000000000
     30092      2783  TIP3      H1             18.7023897604       23.5340471335       32.2485109408  TIP3      2591            0.0000000000
     30093      2783  TIP3      H2             19.5181176146       23.1023577149       31.0978574319  TIP3      2591            0.0000000000
     30094      2784  TIP3      OH2            13.7480155623       26.0106401397       31.2574690710  TIP3      2592            0.0000000000
     30095      2784  TIP3      H1             13.6360449617       25.0474748906       31.3844322943  TIP3      2592            0.0000000000
     30096      2784  TIP3      H2             13.7243251908       26.0337579337       30.2771880890  TIP3      2592            0.0000000000
     30097      2785  TIP3      OH2             6.3238923070       23.8451529293       27.8935932115  TIP3      2593            0.0000000000
     30098      2785  TIP3      H1              6.5667309072       24.6653105232       27.4265653506  TIP3      2593            0.0000000000
     30099      2785  TIP3      H2              5.8655869467       23.3615707474       27.1771317731  TIP3      2593            0.0000000000
     30100      2786  TIP3      OH2            14.2750825336       24.2556583900       26.8357954315  TIP3      2594            0.0000000000
     30101      2786  TIP3      H1             14.7509260711       23.8286711264       27.5901128356  TIP3      2594            0.0000000000
     30102      2786  TIP3      H2             14.9866094975       24.7812268296       26.4272807639  TIP3      2594            0.0000000000
     30103      2787  TIP3      OH2             3.1044278710       26.7460288176       29.0531322591  TIP3      2595            0.0000000000
     30104      2787  TIP3      H1              3.7716508777       26.4535650832       29.7021073189  TIP3      2595            0.0000000000
     30105      2787  TIP3      H2              3.3814200066       26.1979294319       28.2856740572  TIP3      2595            0.0000000000
     30106      2788  TIP3      OH2             7.7710824722       28.0279490076       28.4502213628  TIP3      2596            0.0000000000
     30107      2788  TIP3      H1              8.6106289144       27.7193608459       28.8145163397  TIP3      2596            0.0000000000
     30108      2788  TIP3      H2              7.5772136162       27.3600990539       27.7546374796  TIP3      2596            0.0000000000
     30109      2789  TIP3      OH2            19.1212513903       24.8220012989       33.6390856042  TIP3      2597            0.0000000000
     30110      2789  TIP3      H1             18.6616083341       25.5686989403       33.2032254536  TIP3      2597            0.0000000000
     30111      2789  TIP3      H2             18.7512826650       24.8570079477       34.5391193521  TIP3      2597            0.0000000000
     30112      2790  TIP3      OH2             5.5492151372       23.1043660979       32.2868712881  TIP3      2598            0.0000000000
     30113      2790  TIP3      H1              5.1032671115       23.5336273099       31.5263097498  TIP3      2598            0.0000000000
     30114      2790  TIP3      H2              4.9893042143       23.3988971746       33.0266317728  TIP3      2598            0.0000000000
     30115      2791  TIP3      OH2            12.0713155778       32.2651907226       25.8330691657  TIP3      2599            0.0000000000
     30116      2791  TIP3      H1             11.9898026262       32.4730495633       24.8876060260  TIP3      2599            0.0000000000
     30117      2791  TIP3      H2             11.8593736201       33.1129149699       26.2543455983  TIP3      2599            0.0000000000
     30118      2792  TIP3      OH2             7.5060163151       30.5202892785       31.9137067061  TIP3      2600            0.0000000000
     30119      2792  TIP3      H1              6.9890970483       31.2793845167       32.2634568718  TIP3      2600            0.0000000000
     30120      2792  TIP3      H2              8.3136049729       30.9448294788       31.5505936430  TIP3      2600            0.0000000000
     30121      2793  TIP3      OH2            15.7881080546       23.3541069612       28.8179863556  TIP3      2601            0.0000000000
     30122      2793  TIP3      H1             15.6329526068       22.6489113944       29.4499372263  TIP3      2601            0.0000000000
     30123      2793  TIP3      H2             16.6941895322       23.6169319087       29.0315233041  TIP3      2601            0.0000000000
     30124      2794  TIP3      OH2             4.9143073137       24.9587732596       30.2814102926  TIP3      2602            0.0000000000
     30125      2794  TIP3      H1              5.5777814766       25.5387073613       30.7266489126  TIP3      2602            0.0000000000
     30126      2794  TIP3      H2              5.4260311161       24.6537517040       29.5037867366  TIP3      2602            0.0000000000
     30127      2795  TIP3      OH2             6.1107263340       32.4257703152       33.1235226774  TIP3      2603            0.0000000000
     30128      2795  TIP3      H1              5.6699318900       32.7498157906       32.3042565646  TIP3      2603            0.0000000000
     30129      2795  TIP3      H2              5.3277893921       32.2896154424       33.7088058750  TIP3      2603            0.0000000000
     30130      2796  TIP3      OH2             2.0889443464       32.6092648237       23.9531944274  TIP3      2604            0.0000000000
     30131      2796  TIP3      H1              2.0636027202       33.1092923476       23.1268942053  TIP3      2604            0.0000000000
     30132      2796  TIP3      H2              2.5353372437       33.2025210043       24.5731938689  TIP3      2604            0.0000000000
     30133      2797  TIP3      OH2            16.1270018783       34.1018011795       31.2901499444  TIP3      2605            0.0000000000
     30134      2797  TIP3      H1             15.2006438269       34.3870927609       31.4680496548  TIP3      2605            0.0000000000
     30135      2797  TIP3      H2             16.4446102250       34.8210661445       30.7152801982  TIP3      2605            0.0000000000
     30136      2798  TIP3      OH2            15.9128395958       22.8046297206       32.4213991122  TIP3      2606            0.0000000000
     30137      2798  TIP3      H1             15.4783558689       23.4926845101       31.8942825397  TIP3      2606            0.0000000000
     30138      2798  TIP3      H2             16.7618972329       22.6800602804       31.9547981905  TIP3      2606            0.0000000000
     30139      2799  TIP3      OH2             8.7384260608       20.2988911667       29.7357499319  TIP3      2607            0.0000000000
     30140      2799  TIP3      H1              8.2890050966       19.4503282433       29.8998858686  TIP3      2607            0.0000000000
     30141      2799  TIP3      H2              7.9803626488       20.8915752682       29.9979928218  TIP3      2607            0.0000000000
     30142      2800  TIP3      OH2            13.8055799675       35.1041530175       26.8541543782  TIP3      2608            0.0000000000
     30143      2800  TIP3      H1             14.3816544871       34.3214075164       26.6556403737  TIP3      2608            0.0000000000
     30144      2800  TIP3      H2             14.4983296870       35.7525760049       27.0151379861  TIP3      2608            0.0000000000
     30145      2801  TIP3      OH2            15.5934088371       33.2207115353       26.3838034224  TIP3      2609            0.0000000000
     30146      2801  TIP3      H1             15.7556619888       32.6730966146       25.5858093285  TIP3      2609            0.0000000000
     30147      2801  TIP3      H2             15.4535471968       32.5455050822       27.0760282461  TIP3      2609            0.0000000000
     30148      2802  TIP3      OH2            16.9274719732       32.5333007724       34.7043141935  TIP3      2610            0.0000000000
     30149      2802  TIP3      H1             16.9205259174       31.8102404620       34.0341220465  TIP3      2610            0.0000000000
     30150      2802  TIP3      H2             17.3000255083       33.2601077146       34.1695701579  TIP3      2610            0.0000000000
     30151      2803  TIP3      OH2            11.5964928018       29.1330363981       24.4998500790  TIP3      2611            0.0000000000
     30152      2803  TIP3      H1             10.8061415701       29.6347776168       24.2174486001  TIP3      2611            0.0000000000
     30153      2803  TIP3      H2             12.2800393621       29.6727120334       24.0668466787  TIP3      2611            0.0000000000
     30154      2804  TIP3      OH2            18.8138838539       28.8783100996       32.5196005073  TIP3      2612            0.0000000000
     30155      2804  TIP3      H1             18.0537846360       29.4974245867       32.5671942597  TIP3      2612            0.0000000000
     30156      2804  TIP3      H2             19.2814154958       29.2539947348       31.7378343118  TIP3      2612            0.0000000000
     30157      2805  TIP3      OH2            15.4001802932       29.4846754291       25.4828480148  TIP3      2613            0.0000000000
     30158      2805  TIP3      H1             14.6454610271       29.7173626124       26.0661689234  TIP3      2613            0.0000000000
     30159      2805  TIP3      H2             15.8883413941       28.8550059653       26.0557194699  TIP3      2613            0.0000000000
     30160      2806  TIP3      OH2            14.6674142034       27.4879763056       34.6868892858  TIP3      2614            0.0000000000
     30161      2806  TIP3      H1             14.7849360894       28.4521085498       34.7197038834  TIP3      2614            0.0000000000
     30162      2806  TIP3      H2             13.8934293812       27.4526708652       34.0960543885  TIP3      2614            0.0000000000
     30163      2807  TIP3      OH2             6.3707494544       29.9321928238       27.2540869355  TIP3      2615            0.0000000000
     30164      2807  TIP3      H1              6.2002586351       29.5627512571       26.3629516433  TIP3      2615            0.0000000000
     30165      2807  TIP3      H2              7.0910211524       29.3527999293       27.5696646977  TIP3      2615            0.0000000000
     30166      2808  TIP3      OH2             7.9407830879       33.1209342985       30.0081522511  TIP3      2616            0.0000000000
     30167      2808  TIP3      H1              7.8768862407       32.9457260922       29.0484834970  TIP3      2616            0.0000000000
     30168      2808  TIP3      H2              8.7537371664       32.6478420449       30.2452791126  TIP3      2616            0.0000000000
     30169      2809  TIP3      OH2             6.7715539586       28.3108419759       30.8371150362  TIP3      2617            0.0000000000
     30170      2809  TIP3      H1              6.9923193453       28.4740925878       29.8938144215  TIP3      2617            0.0000000000
     30171      2809  TIP3      H2              7.0292026229       29.1612667322       31.2601678422  TIP3      2617            0.0000000000
     30172      2810  TIP3      OH2            13.4950874504       34.6351824436       31.7502837738  TIP3      2618            0.0000000000
     30173      2810  TIP3      H1             12.7148606931       35.1951768656       31.7986496148  TIP3      2618            0.0000000000
     30174      2810  TIP3      H2             13.1712050114       33.7746489244       32.0530566424  TIP3      2618            0.0000000000
     30175      2811  TIP3      OH2             7.6853672248       32.8943534633       35.4883938370  TIP3      2619            0.0000000000
     30176      2811  TIP3      H1              7.0964241242       33.5378443350       35.9440447136  TIP3      2619            0.0000000000
     30177      2811  TIP3      H2              7.1559075751       32.6989692839       34.6805600587  TIP3      2619            0.0000000000
     30178      2812  TIP3      OH2             4.7578349060       29.3861276943       34.4742907921  TIP3      2620            0.0000000000
     30179      2812  TIP3      H1              4.6829681853       30.2654786039       34.8807171664  TIP3      2620            0.0000000000
     30180      2812  TIP3      H2              4.2220111174       28.8802839789       35.1143105443  TIP3      2620            0.0000000000
     30181      2813  TIP3      OH2            11.1990146433       35.5588941194       26.5593453515  TIP3      2621            0.0000000000
     30182      2813  TIP3      H1             12.1339176634       35.2515821306       26.5204477337  TIP3      2621            0.0000000000
     30183      2813  TIP3      H2             11.1794877013       36.1442882806       25.7941572749  TIP3      2621            0.0000000000
     30184      2814  TIP3      OH2             6.1009870711       34.9961965683       36.1415361669  TIP3      2622            0.0000000000
     30185      2814  TIP3      H1              6.1142699361       34.9851346410       35.1542569217  TIP3      2622            0.0000000000
     30186      2814  TIP3      H2              5.2233244695       34.5798145931       36.3100807233  TIP3      2622            0.0000000000
     30187      2815  TIP3      OH2            17.6278949311       20.3318594393       23.2181275339  TIP3      2623            0.0000000000
     30188      2815  TIP3      H1             16.6486735033       20.4158523706       23.1514727107  TIP3      2623            0.0000000000
     30189      2815  TIP3      H2             17.9352983854       20.9797434470       22.5659900831  TIP3      2623            0.0000000000
     30190      2816  TIP3      OH2             5.3471701520       29.0249843922       24.9952023007  TIP3      2624            0.0000000000
     30191      2816  TIP3      H1              4.7135224017       29.7330471375       24.8262057873  TIP3      2624            0.0000000000
     30192      2816  TIP3      H2              5.0248508024       28.2962597918       24.4563490536  TIP3      2624            0.0000000000
     30193      2817  TIP3      OH2             1.8177027451       31.5098180876       33.7553531151  TIP3      2625            0.0000000000
     30194      2817  TIP3      H1              1.4768231811       31.3779150014       32.8634309234  TIP3      2625            0.0000000000
     30195      2817  TIP3      H2              1.8812656771       30.5875550911       34.0790796266  TIP3      2625            0.0000000000
     30196      2818  TIP3      OH2             1.5090694093       34.1122395307       30.3545847826  TIP3      2626            0.0000000000
     30197      2818  TIP3      H1              2.3439447994       33.6207258236       30.3073954174  TIP3      2626            0.0000000000
     30198      2818  TIP3      H2              1.7267199416       34.7476060978       31.0590167144  TIP3      2626            0.0000000000
     30199      2819  TIP3      OH2            19.1309073120       35.2610875423       36.2201293706  TIP3      2627            0.0000000000
     30200      2819  TIP3      H1             19.2092894058       34.5452832847       35.5732623915  TIP3      2627            0.0000000000
     30201      2819  TIP3      H2             18.1754646609       35.1921637976       36.4682417528  TIP3      2627            0.0000000000
     30202      2820  TIP3      OH2             9.8846091909       34.6385208069       35.4832305550  TIP3      2628            0.0000000000
     30203      2820  TIP3      H1             10.2848873467       34.5154612239       36.3617893312  TIP3      2628            0.0000000000
     30204      2820  TIP3      H2              9.2252551397       33.9165697307       35.4192905950  TIP3      2628            0.0000000000
     30205      2821  TIP3      OH2            16.6376970424       26.2858489809       36.5126725642  TIP3      2629            0.0000000000
     30206      2821  TIP3      H1             16.0184042103       26.6754691005       35.8631453500  TIP3      2629            0.0000000000
     30207      2821  TIP3      H2             16.6223809904       25.3507362450       36.1973414698  TIP3      2629            0.0000000000
     30208      2822  TIP3      OH2             4.0762110530       32.5086942957       34.7639961478  TIP3      2630            0.0000000000
     30209      2822  TIP3      H1              4.0798361461       32.0384975963       35.6261699324  TIP3      2630            0.0000000000
     30210      2822  TIP3      H2              3.1857579329       32.2767538578       34.3984125862  TIP3      2630            0.0000000000
     30211      2823  TIP3      OH2             6.6462910949       21.4716956756       30.6465627903  TIP3      2631            0.0000000000
     30212      2823  TIP3      H1              5.7388020830       21.4086737588       30.2762983143  TIP3      2631            0.0000000000
     30213      2823  TIP3      H2              6.4637018966       22.0077611268       31.4534548679  TIP3      2631            0.0000000000
     30214      2824  TIP3      OH2            11.5446155221       20.9328347797       33.7266275769  TIP3      2632            0.0000000000
     30215      2824  TIP3      H1             11.9230946170       20.3945700208       34.4621900528  TIP3      2632            0.0000000000
     30216      2824  TIP3      H2             10.6094908042       20.9868780928       33.9855031195  TIP3      2632            0.0000000000
     30217      2825  TIP3      OH2            14.0949597590       24.6512915304       34.9835118563  TIP3      2633            0.0000000000
     30218      2825  TIP3      H1             13.4247718635       24.3279757027       35.6495813767  TIP3      2633            0.0000000000
     30219      2825  TIP3      H2             14.2764139348       25.5575506913       35.2834224169  TIP3      2633            0.0000000000
     30220      2826  TIP3      OH2            10.7738940421       24.0260108829       20.7967757790  TIP3      2634            0.0000000000
     30221      2826  TIP3      H1             10.4248709651       23.6528219477       21.6376748914  TIP3      2634            0.0000000000
     30222      2826  TIP3      H2             11.1585714122       23.2292791694       20.4170843659  TIP3      2634            0.0000000000
     30223      2827  TIP3      OH2             6.8178211775       25.9701624978       31.9244721251  TIP3      2635            0.0000000000
     30224      2827  TIP3      H1              6.0043310081       26.1277337670       32.4391179758  TIP3      2635            0.0000000000
     30225      2827  TIP3      H2              6.9501194746       26.8791021903       31.5606933085  TIP3      2635            0.0000000000
     30226      2828  TIP3      OH2             6.7456932867       26.2321488745       26.5136437379  TIP3      2636            0.0000000000
     30227      2828  TIP3      H1              5.8685684859       26.6386021417       26.4355746933  TIP3      2636            0.0000000000
     30228      2828  TIP3      H2              6.9441758984       25.9576983200       25.5934757044  TIP3      2636            0.0000000000
     30229      2829  TIP3      OH2            12.2584198336       26.5612392658       25.4125134241  TIP3      2637            0.0000000000
     30230      2829  TIP3      H1             11.8707835685       27.4547537031       25.3857132650  TIP3      2637            0.0000000000
     30231      2829  TIP3      H2             13.1949676605       26.7573908400       25.3306395026  TIP3      2637            0.0000000000
     30232      2830  TIP3      OH2            11.1430921851       27.1041561379       36.9597626797  TIP3      2638            0.0000000000
     30233      2830  TIP3      H1             10.7303507142       26.2926248295       37.3245048095  TIP3      2638            0.0000000000
     30234      2830  TIP3      H2             12.0080794901       27.0702798894       37.4147165434  TIP3      2638            0.0000000000
     30235      2831  TIP3      OH2            13.4704986076       26.6802706450       28.4916687010  TIP3      2639            0.0000000000
     30236      2831  TIP3      H1             13.1160319618       27.5027845284       28.1009273152  TIP3      2639            0.0000000000
     30237      2831  TIP3      H2             13.2506229557       25.9941665778       27.8372232917  TIP3      2639            0.0000000000
     30238      2832  TIP3      OH2             4.2131488394       26.2679589955       32.9581838001  TIP3      2640            0.0000000000
     30239      2832  TIP3      H1              4.5730720999       26.4660572552       33.8323522688  TIP3      2640            0.0000000000
     30240      2832  TIP3      H2              3.7665554955       25.4148525176       33.1323790112  TIP3      2640            0.0000000000
     30241      2833  TIP3      OH2             0.9801626693       23.5746748321       27.8247229801  TIP3      2641            0.0000000000
     30242      2833  TIP3      H1              1.5737596704       23.5752216588       28.6019726280  TIP3      2641            0.0000000000
     30243      2833  TIP3      H2              1.5103186336       23.9760256981       27.1191008877  TIP3      2641            0.0000000000
     30244      2834  TIP3      OH2            12.4884172080       27.7344696869       32.8031712398  TIP3      2642            0.0000000000
     30245      2834  TIP3      H1             12.9907248242       27.0313310011       32.3213950618  TIP3      2642            0.0000000000
     30246      2834  TIP3      H2             11.8057997373       27.2184711246       33.2985071238  TIP3      2642            0.0000000000
     30247      2835  TIP3      OH2             9.6665848097       23.7636755573       27.9958968326  TIP3      2643            0.0000000000
     30248      2835  TIP3      H1              8.7311871899       23.5051658627       28.0245508032  TIP3      2643            0.0000000000
     30249      2835  TIP3      H2             10.0962613503       23.1336947122       28.6237953103  TIP3      2643            0.0000000000
     30250      2836  TIP3      OH2             3.7348554385       25.2006707103       26.8364474038  TIP3      2644            0.0000000000
     30251      2836  TIP3      H1              3.1712746622       25.4410492523       26.0801230682  TIP3      2644            0.0000000000
     30252      2836  TIP3      H2              4.2793124816       24.4878520964       26.4292919035  TIP3      2644            0.0000000000
     30253      2837  TIP3      OH2            13.3971055790       23.1412925382       30.9865610905  TIP3      2645            0.0000000000
     30254      2837  TIP3      H1             12.7430290219       22.8230682576       31.6323898116  TIP3      2645            0.0000000000
     30255      2837  TIP3      H2             13.1551467820       22.6892074951       30.1691302214  TIP3      2645            0.0000000000
     30256      2838  TIP3      OH2             4.4861455177       31.1109489769       37.0447880268  TIP3      2646            0.0000000000
     30257      2838  TIP3      H1              5.1170884475       31.2027066874       37.7941916866  TIP3      2646            0.0000000000
     30258      2838  TIP3      H2              3.6336587806       31.0178372924       37.5123903598  TIP3      2646            0.0000000000
     30259      2839  TIP3      OH2            10.5239763088       26.4082700836       29.8325134563  TIP3      2647            0.0000000000
     30260      2839  TIP3      H1             11.0372425932       25.9956574538       29.1242654513  TIP3      2647            0.0000000000
     30261      2839  TIP3      H2              9.9467394043       25.6748370184       30.1077689444  TIP3      2647            0.0000000000
     30262      2840  TIP3      OH2             4.8782982171       23.1185589521       25.4752420391  TIP3      2648            0.0000000000
     30263      2840  TIP3      H1              5.3300113368       22.2735136392       25.3725031503  TIP3      2648            0.0000000000
     30264      2840  TIP3      H2              5.1765824700       23.5217345153       24.6183387312  TIP3      2648            0.0000000000
     30265      2841  TIP3      OH2             9.1329556396       24.5836347568       31.7805718688  TIP3      2649            0.0000000000
     30266      2841  TIP3      H1              8.3368739418       25.1456503674       31.6886280840  TIP3      2649            0.0000000000
     30267      2841  TIP3      H2              9.7301369668       25.1599730486       32.2900975589  TIP3      2649            0.0000000000
     30268      2842  TIP3      OH2            17.0876871490       30.9077580825       32.6312721280  TIP3      2650            0.0000000000
     30269      2842  TIP3      H1             17.6462154070       31.5048897122       32.0703617709  TIP3      2650            0.0000000000
     30270      2842  TIP3      H2             16.2496609490       30.8894530468       32.1289677349  TIP3      2650            0.0000000000
     30271      2843  TIP3      OH2            11.3306982071       31.7852337506       35.1708743242  TIP3      2651            0.0000000000
     30272      2843  TIP3      H1             10.8400726743       31.0248326723       35.5197670935  TIP3      2651            0.0000000000
     30273      2843  TIP3      H2             10.7968977701       32.5359348748       35.4602704808  TIP3      2651            0.0000000000
     30274      2844  TIP3      OH2             4.6552647843       30.7899389898       29.0421948168  TIP3      2652            0.0000000000
     30275      2844  TIP3      H1              5.1774978057       30.7862915711       28.1976682821  TIP3      2652            0.0000000000
     30276      2844  TIP3      H2              5.0038791193       29.9883438891       29.4586646742  TIP3      2652            0.0000000000
     30277      2845  TIP3      OH2             1.5582341215       28.9209774125       34.8529468972  TIP3      2653            0.0000000000
     30278      2845  TIP3      H1              1.5852113429       28.3222314411       35.6259472673  TIP3      2653            0.0000000000
     30279      2845  TIP3      H2              1.2123329757       28.3497949253       34.1518860509  TIP3      2653            0.0000000000
     30280      2846  TIP3      OH2             8.7307502917       28.3778474057       36.5043643288  TIP3      2654            0.0000000000
     30281      2846  TIP3      H1              8.3069154564       27.7383534381       35.9182778521  TIP3      2654            0.0000000000
     30282      2846  TIP3      H2              9.6500431938       28.0170568993       36.5235023396  TIP3      2654            0.0000000000
     30283      2847  TIP3      OH2            13.4454004494       34.1936095046       34.9628187419  TIP3      2655            0.0000000000
     30284      2847  TIP3      H1             12.5633387156       33.9555393312       34.6737886238  TIP3      2655            0.0000000000
     30285      2847  TIP3      H2             13.2415682738       34.4484008602       35.8838479688  TIP3      2655            0.0000000000
     30286      2848  TIP3      OH2            19.4266050035       26.0731840596       23.1444459350  TIP3      2656            0.0000000000
     30287      2848  TIP3      H1             18.8296460642       25.6703865597       22.4919896782  TIP3      2656            0.0000000000
     30288      2848  TIP3      H2             19.2663595852       27.0107437229       22.9290655348  TIP3      2656            0.0000000000
     30289      2849  TIP3      OH2            19.2304556985       32.2309759646       36.0633427217  TIP3      2657            0.0000000000
     30290      2849  TIP3      H1             18.2930159249       32.5022649711       35.9285815729  TIP3      2657            0.0000000000
     30291      2849  TIP3      H2             19.5539255083       32.1565955273       35.1399301136  TIP3      2657            0.0000000000
     30292      2850  TIP3      OH2            17.0717714995       35.1431574765       24.3132141355  TIP3      2658            0.0000000000
     30293      2850  TIP3      H1             17.4498401127       34.3782596049       24.7654887320  TIP3      2658            0.0000000000
     30294      2850  TIP3      H2             17.2480425850       34.9669555780       23.3828077327  TIP3      2658            0.0000000000
     30295      2851  TIP3      OH2            14.9151445359       29.9991344902       30.7194634893  TIP3      2659            0.0000000000
     30296      2851  TIP3      H1             13.9985199691       29.6893590636       30.6541053103  TIP3      2659            0.0000000000
     30297      2851  TIP3      H2             15.3922000976       29.2808809896       30.2723582200  TIP3      2659            0.0000000000
     30298      2852  TIP3      OH2             3.0500391984       29.6458951283       20.9899722850  TIP3      2660            0.0000000000
     30299      2852  TIP3      H1              3.2796502754       29.7838147655       21.9091863907  TIP3      2660            0.0000000000
     30300      2852  TIP3      H2              2.2675536944       29.0710112250       21.1143041145  TIP3      2660            0.0000000000
     30301      2853  TIP3      OH2             8.9549213661       35.1226771180       32.5597993487  TIP3      2661            0.0000000000
     30302      2853  TIP3      H1              9.3242077790       35.9671376113       32.8626233243  TIP3      2661            0.0000000000
     30303      2853  TIP3      H2              9.2431853739       34.5359194552       33.2744420327  TIP3      2661            0.0000000000
     30304      2854  TIP3      OH2            12.2245062124       31.6934948561       32.4361231812  TIP3      2662            0.0000000000
     30305      2854  TIP3      H1             12.1627521111       31.5867836164       33.4078191817  TIP3      2662            0.0000000000
     30306      2854  TIP3      H2             12.5529442781       30.8337471734       32.1404618526  TIP3      2662            0.0000000000
     30307      2855  TIP3      OH2            15.0111348783       31.3138836385       21.7081394338  TIP3      2663            0.0000000000
     30308      2855  TIP3      H1             15.2139773004       31.7328793130       22.5616946911  TIP3      2663            0.0000000000
     30309      2855  TIP3      H2             14.6386862942       32.0678615385       21.2032503265  TIP3      2663            0.0000000000
     30310      2856  TIP3      OH2            15.2024872230       36.3511917788       34.7734796511  TIP3      2664            0.0000000000
     30311      2856  TIP3      H1             14.5677600585       35.5994734735       34.6797166051  TIP3      2664            0.0000000000
     30312      2856  TIP3      H2             14.7605772823       37.0762923093       34.3120008735  TIP3      2664            0.0000000000
     30313      2857  TIP3      OH2             3.7922303124       23.8352624573       34.4114041562  TIP3      2665            0.0000000000
     30314      2857  TIP3      H1              3.1295792486       24.2325682846       35.0014742317  TIP3      2665            0.0000000000
     30315      2857  TIP3      H2              3.6778158655       22.9018894299       34.6503143578  TIP3      2665            0.0000000000
     30316      2858  TIP3      OH2            16.0970701103       31.7259694329       24.1482327543  TIP3      2666            0.0000000000
     30317      2858  TIP3      H1             15.6728899446       30.8777651589       24.4049052172  TIP3      2666            0.0000000000
     30318      2858  TIP3      H2             17.0117372285       31.4085542037       23.9929011852  TIP3      2666            0.0000000000
     30319      2859  TIP3      OH2             2.9319831952       34.8809672470       32.7463034875  TIP3      2667            0.0000000000
     30320      2859  TIP3      H1              3.6630031104       34.3673624992       33.1128750482  TIP3      2667            0.0000000000
     30321      2859  TIP3      H2              3.1784191307       35.7991925107       32.9220911785  TIP3      2667            0.0000000000
     30322      2860  TIP3      OH2            12.0567575105       23.7050687408       33.5056199861  TIP3      2668            0.0000000000
     30323      2860  TIP3      H1             12.9363758039       23.9570908451       33.8403903276  TIP3      2668            0.0000000000
     30324      2860  TIP3      H2             11.9474027253       22.8004469801       33.8494482859  TIP3      2668            0.0000000000
     30325      2861  TIP3      OH2            13.0789609647       23.0847834301       24.7242753314  TIP3      2669            0.0000000000
     30326      2861  TIP3      H1             13.3697899620       23.8083603828       24.1731114349  TIP3      2669            0.0000000000
     30327      2861  TIP3      H2             13.4627167646       23.3489459618       25.5850817544  TIP3      2669            0.0000000000
     30328      2862  TIP3      OH2            11.2461749376       35.7679627404       23.1297464616  TIP3      2670            0.0000000000
     30329      2862  TIP3      H1             10.4490574716       35.5398062477       22.6044313697  TIP3      2670            0.0000000000
     30330      2862  TIP3      H2             11.9076322128       35.4158632058       22.4774185384  TIP3      2670            0.0000000000
     30331      2863  TIP3      OH2             9.7397780722       25.2333093350       25.1841414125  TIP3      2671            0.0000000000
     30332      2863  TIP3      H1             10.6460523100       25.5586797585       25.3361164150  TIP3      2671            0.0000000000
     30333      2863  TIP3      H2              9.5738953273       24.6821003486       25.9643546027  TIP3      2671            0.0000000000
     30334      2864  TIP3      OH2            11.0511345675       26.1016970215       34.3227420862  TIP3      2672            0.0000000000
     30335      2864  TIP3      H1             11.1580997173       26.2163260428       35.2925435467  TIP3      2672            0.0000000000
     30336      2864  TIP3      H2             11.4222385819       25.2088637292       34.1359650930  TIP3      2672            0.0000000000
     30337      2865  TIP3      OH2            10.6876049027       21.7372093951       26.0682118432  TIP3      2673            0.0000000000
     30338      2865  TIP3      H1             10.5680188895       22.2173878712       26.9074284016  TIP3      2673            0.0000000000
     30339      2865  TIP3      H2             11.5127229788       22.1225035664       25.7228270632  TIP3      2673            0.0000000000
     30340      2866  TIP3      OH2            16.7475215525       23.9839235404       35.3008775051  TIP3      2674            0.0000000000
     30341      2866  TIP3      H1             15.7868466406       23.7641211738       35.3138270662  TIP3      2674            0.0000000000
     30342      2866  TIP3      H2             17.0279596017       23.5488566511       34.4789773408  TIP3      2674            0.0000000000
     30343      2867  TIP3      OH2            15.9461894241       27.6198659732       29.1455828580  TIP3      2675            0.0000000000
     30344      2867  TIP3      H1             15.0532001455       27.2216310831       29.0697358644  TIP3      2675            0.0000000000
     30345      2867  TIP3      H2             16.4551926722       26.8482974531       29.4542072724  TIP3      2675            0.0000000000
     30346      2868  TIP3      OH2             3.4478925145       26.5089949379       20.9649847848  TIP3      2676            0.0000000000
     30347      2868  TIP3      H1              3.0360286941       27.1375726587       20.3361852361  TIP3      2676            0.0000000000
     30348      2868  TIP3      H2              3.3425006235       25.6989439218       20.4547071520  TIP3      2676            0.0000000000
     30349      2869  TIP3      OH2             4.0422759495       20.9640338663       30.0202871634  TIP3      2677            0.0000000000
     30350      2869  TIP3      H1              3.9360573901       20.8294450107       29.0445858464  TIP3      2677            0.0000000000
     30351      2869  TIP3      H2              3.6466198352       20.1211076867       30.3261102072  TIP3      2677            0.0000000000
     30352      2870  TIP3      OH2             6.9830885292       36.0967218373       39.5699196898  TIP3      2678            0.0000000000
     30353      2870  TIP3      H1              7.9429605257       36.0002417073       39.5037664826  TIP3      2678            0.0000000000
     30354      2870  TIP3      H2              6.6391698434       35.4977186193       38.8855058052  TIP3      2678            0.0000000000
     30355      2871  TIP3      OH2            10.5569547975       35.3818532732       19.4631886533  TIP3      2679            0.0000000000
     30356      2871  TIP3      H1              9.9185922874       35.4884875761       20.2031932238  TIP3      2679            0.0000000000
     30357      2871  TIP3      H2             11.3947589912       35.4231612615       19.9698603342  TIP3      2679            0.0000000000
     30358      2872  TIP3      OH2            12.9167674390       34.8859506456       37.6554292377  TIP3      2680            0.0000000000
     30359      2872  TIP3      H1             12.6388031383       34.0672882664       38.1362012644  TIP3      2680            0.0000000000
     30360      2872  TIP3      H2             13.8359136244       34.9311852658       38.0084712564  TIP3      2680            0.0000000000
     30361      2873  TIP3      OH2             1.8921172618       31.3070560702       37.9905405102  TIP3      2681            0.0000000000
     30362      2873  TIP3      H1              1.3332737096       30.5294809196       38.1375382340  TIP3      2681            0.0000000000
     30363      2873  TIP3      H2              1.4580584475       31.7388732287       37.2151415377  TIP3      2681            0.0000000000
     30364      2874  TIP3      OH2             8.7297782219       30.9435020580       37.2509862496  TIP3      2682            0.0000000000
     30365      2874  TIP3      H1              8.4617817240       31.5442269451       36.5255541265  TIP3      2682            0.0000000000
     30366      2874  TIP3      H2              8.5318405011       30.0514463889       36.8797446001  TIP3      2682            0.0000000000
     30367      2875  TIP3      OH2            14.5037825867       30.9473569688       34.9655714390  TIP3      2683            0.0000000000
     30368      2875  TIP3      H1             15.3127498282       31.4848431912       35.1104741520  TIP3      2683            0.0000000000
     30369      2875  TIP3      H2             13.8044485874       31.6103440423       35.1192851659  TIP3      2683            0.0000000000
     30370      2876  TIP3      OH2             3.2613767156       28.5008715825       37.3569176609  TIP3      2684            0.0000000000
     30371      2876  TIP3      H1              3.9008051281       27.9040315272       37.7638410862  TIP3      2684            0.0000000000
     30372      2876  TIP3      H2              3.2463717191       29.1830857442       38.0532131629  TIP3      2684            0.0000000000
     30373      2877  TIP3      OH2             6.7053060821       27.4175926017       34.3848601104  TIP3      2685            0.0000000000
     30374      2877  TIP3      H1              6.0596415823       28.1136901081       34.5922608980  TIP3      2685            0.0000000000
     30375      2877  TIP3      H2              7.3747689267       27.9428248599       33.9081902313  TIP3      2685            0.0000000000
     30376      2878  TIP3      OH2            12.2290939510       30.0914726401       38.2356969249  TIP3      2686            0.0000000000
     30377      2878  TIP3      H1             12.8004652118       29.5359997873       37.6833215207  TIP3      2686            0.0000000000
     30378      2878  TIP3      H2             11.7197879421       29.4244247804       38.7425613053  TIP3      2686            0.0000000000
     30379      2879  TIP3      OH2             7.8872289352       25.2380692126       35.5549164779  TIP3      2687            0.0000000000
     30380      2879  TIP3      H1              8.0199725056       24.5606631360       34.8593600038  TIP3      2687            0.0000000000
     30381      2879  TIP3      H2              7.6009376382       26.0038649917       35.0096734685  TIP3      2687            0.0000000000
     30382      2880  TIP3      OH2             7.8829995538       23.1588076324       33.6835014856  TIP3      2688            0.0000000000
     30383      2880  TIP3      H1              8.3482448437       23.5276779900       32.8997289663  TIP3      2688            0.0000000000
     30384      2880  TIP3      H2              6.9629594015       23.2761732118       33.3771830403  TIP3      2688            0.0000000000
     30385      2881  TIP3      OH2             8.9815532714       29.0568714263       33.5686458548  TIP3      2689            0.0000000000
     30386      2881  TIP3      H1              9.8075924065       29.0434134575       33.0621630936  TIP3      2689            0.0000000000
     30387      2881  TIP3      H2              8.4412899778       29.7062055526       33.0685104569  TIP3      2689            0.0000000000
     30388      2882  TIP3      OH2            13.2563974366       26.5683265892       38.8052827729  TIP3      2690            0.0000000000
     30389      2882  TIP3      H1             13.3260112340       25.7258108865       39.3289945376  TIP3      2690            0.0000000000
     30390      2882  TIP3      H2             14.1887834087       26.7960367411       38.6807218286  TIP3      2690            0.0000000000
     30391      2883  TIP3      OH2            15.0869467587       29.5228458956       37.1629058400  TIP3      2691            0.0000000000
     30392      2883  TIP3      H1             14.6490612260       29.9275412552       36.3904428835  TIP3      2691            0.0000000000
     30393      2883  TIP3      H2             16.0132600979       29.5539666174       36.8516395046  TIP3      2691            0.0000000000
     30394      2884  TIP3      OH2             6.0817586079       25.6558003684       37.7654113275  TIP3      2692            0.0000000000
     30395      2884  TIP3      H1              5.2249085612       25.2336997514       37.5126403765  TIP3      2692            0.0000000000
     30396      2884  TIP3      H2              6.5990803474       25.5736313961       36.9396279263  TIP3      2692            0.0000000000
     30397      2885  TIP3      OH2             8.7221173549       20.5771555801       33.6296776424  TIP3      2693            0.0000000000
     30398      2885  TIP3      H1              8.5022684321       21.5276212544       33.7599985855  TIP3      2693            0.0000000000
     30399      2885  TIP3      H2              7.8615306358       20.2273125970       33.3751046435  TIP3      2693            0.0000000000
     30400      2886  TIP3      OH2             9.8025028633       24.7789531723       37.7732105977  TIP3      2694            0.0000000000
     30401      2886  TIP3      H1              9.1209166832       24.6209283368       38.4619470615  TIP3      2694            0.0000000000
     30402      2886  TIP3      H2              9.2400239855       24.7518307136       36.9778210088  TIP3      2694            0.0000000000
     30403      2887  TIP3      OH2            12.2856589767       24.1692757517       36.8074734239  TIP3      2695            0.0000000000
     30404      2887  TIP3      H1             11.3568165914       24.1363928261       37.1131226905  TIP3      2695            0.0000000000
     30405      2887  TIP3      H2             12.6985322786       23.6103811180       37.5108353720  TIP3      2695            0.0000000000
     30406      2888  TIP3      OH2            13.4313110811       22.5318581443       38.4622205627  TIP3      2696            0.0000000000
     30407      2888  TIP3      H1             13.9265119842       21.7016878124       38.5957848098  TIP3      2696            0.0000000000
     30408      2888  TIP3      H2             13.6895489119       23.0846514126       39.2348490078  TIP3      2696            0.0000000000
     30409      2889  TIP3      OH2             3.9184975986       24.0768767332       37.5272910944  TIP3      2697            0.0000000000
     30410      2889  TIP3      H1              3.8207839469       23.2315504478       37.0518748430  TIP3      2697            0.0000000000
     30411      2889  TIP3      H2              3.8220467478       23.7690597236       38.4649469831  TIP3      2697            0.0000000000
     30412      2890  TIP3      OH2             8.3111552937       20.1566655805       36.2613267946  TIP3      2698            0.0000000000
     30413      2890  TIP3      H1              9.1161379829       19.6277666470       36.3750154353  TIP3      2698            0.0000000000
     30414      2890  TIP3      H2              8.3426340552       20.2639788656       35.2840761723  TIP3      2698            0.0000000000
     30415      2891  TIP3      OH2             8.5880733160       21.2109103577       39.1452880726  TIP3      2699            0.0000000000
     30416      2891  TIP3      H1              8.3501485870       20.8213406247       38.2830823157  TIP3      2699            0.0000000000
     30417      2891  TIP3      H2              8.5503219398       22.1530036327       38.8977178788  TIP3      2699            0.0000000000
     30418      2892  TIP3      OH2             1.2658616120       36.5081312090       28.4650003082  TIP3      2700            0.0000000000
     30419      2892  TIP3      H1              0.5662000667       35.9110158666       28.1548505922  TIP3      2700            0.0000000000
     30420      2892  TIP3      H2              1.4888324664       36.0574428921       29.2959124862  TIP3      2700            0.0000000000
     30421      2893  TIP3      OH2            17.4349965725       32.6096760535       38.9074342518  TIP3      2701            0.0000000000
     30422      2893  TIP3      H1             16.6517239519       32.6805201801       39.4990082711  TIP3      2701            0.0000000000
     30423      2893  TIP3      H2             17.8723948431       33.4628549511       39.1185077727  TIP3      2701            0.0000000000
     30424      2894  TIP3      OH2            18.7689685461       30.8312433202       24.0186381638  TIP3      2702            0.0000000000
     30425      2894  TIP3      H1             19.6025961794       31.3446720294       24.0726841308  TIP3      2702            0.0000000000
     30426      2894  TIP3      H2             18.8448324423       30.2400220368       24.8051061580  TIP3      2702            0.0000000000
     30427      2895  TIP3      OH2            18.9559734363       29.0757900916       26.0582808110  TIP3      2703            0.0000000000
     30428      2895  TIP3      H1             18.1468765175       28.6114112820       26.3606842696  TIP3      2703            0.0000000000
     30429      2895  TIP3      H2             19.4894312075       29.1098492575       26.8795636015  TIP3      2703            0.0000000000
     30430      2896  TIP3      OH2            18.9917581888       32.1520518779       31.2114302935  TIP3      2704            0.0000000000
     30431      2896  TIP3      H1             19.4678158188       31.3575110379       30.9059073579  TIP3      2704            0.0000000000
     30432      2896  TIP3      H2             19.2696121534       32.8207156608       30.5507392584  TIP3      2704            0.0000000000
     30433      2897  TIP3      OH2            17.5205028246       34.9969305881       33.4479964739  TIP3      2705            0.0000000000
     30434      2897  TIP3      H1             16.6716432550       35.3605339441       33.7541789389  TIP3      2705            0.0000000000
     30435      2897  TIP3      H2             17.2600365468       34.6739670102       32.5559346896  TIP3      2705            0.0000000000
     30436      2898  TIP3      OH2            17.7179413745       26.3432718996       20.7748121794  TIP3      2706            0.0000000000
     30437      2898  TIP3      H1             18.4706445974       26.9451860822       20.5855016264  TIP3      2706            0.0000000000
     30438      2898  TIP3      H2             16.9795014064       26.9219744098       20.5098573308  TIP3      2706            0.0000000000
     30439      2899  TIP3      OH2            16.9121425527       27.4233655016       26.6352368882  TIP3      2707            0.0000000000
     30440      2899  TIP3      H1             16.7371936216       26.4916440635       26.3975959277  TIP3      2707            0.0000000000
     30441      2899  TIP3      H2             16.6756208773       27.4628708308       27.5849036349  TIP3      2707            0.0000000000
     30442      2900  TIP3      OH2             1.6615759918       29.9899822730       30.6623769368  TIP3      2708            0.0000000000
     30443      2900  TIP3      H1              1.5361821913       29.5515262879       29.7981577554  TIP3      2708            0.0000000000
     30444      2900  TIP3      H2              2.6090884546       29.7694732129       30.8394203491  TIP3      2708            0.0000000000
     30445      2901  TIP3      OH2            17.8690843562       29.7805433767       36.3666178371  TIP3      2709            0.0000000000
     30446      2901  TIP3      H1             18.4993033730       29.0305211087       36.3327615543  TIP3      2709            0.0000000000
     30447      2901  TIP3      H2             18.4561980434       30.5655993176       36.3645241125  TIP3      2709            0.0000000000
     30448      2902  TIP3      OH2            18.9660670443       27.4456452272       37.1570386100  TIP3      2710            0.0000000000
     30449      2902  TIP3      H1             18.1982809378       26.9470621589       36.8039385251  TIP3      2710            0.0000000000
     30450      2902  TIP3      H2             19.6894118299       26.7809078075       37.1757543609  TIP3      2710            0.0000000000
     30451      2903  TIP3      OH2            16.3630200428       25.1749299736       25.2595863159  TIP3      2711            0.0000000000
     30452      2903  TIP3      H1             16.5470996764       24.2079812966       25.3543093053  TIP3      2711            0.0000000000
     30453      2903  TIP3      H2             17.1085017856       25.4474778580       24.7136995614  TIP3      2711            0.0000000000
     30454      2904  TIP3      OH2            17.3125017070       25.3814012021       30.4794103147  TIP3      2712            0.0000000000
     30455      2904  TIP3      H1             18.2509610720       25.6844676627       30.5497196529  TIP3      2712            0.0000000000
     30456      2904  TIP3      H2             16.9448487810       25.8122948911       31.2709918014  TIP3      2712            0.0000000000
     30457      2905  TIP3      OH2            17.0662709216       26.7604725048       32.8910371428  TIP3      2713            0.0000000000
     30458      2905  TIP3      H1             16.1633141527       27.0752797243       33.0782966087  TIP3      2713            0.0000000000
     30459      2905  TIP3      H2             17.6252091516       27.5691573910       32.8958868866  TIP3      2713            0.0000000000
     30460      2906  TIP3      OH2             1.6877206450       24.8865713080       36.4919489982  TIP3      2714            0.0000000000
     30461      2906  TIP3      H1              2.4729790936       24.8118857182       37.0782013740  TIP3      2714            0.0000000000
     30462      2906  TIP3      H2              1.2539099559       24.0091551583       36.6332361199  TIP3      2714            0.0000000000
     30463      2907  TIP3      OH2            19.4540953769       20.7940631920       38.3487855019  TIP3      2715            0.0000000000
     30464      2907  TIP3      H1             19.8844145018       20.0546411374       37.8602273731  TIP3      2715            0.0000000000
     30465      2907  TIP3      H2             19.3522541892       21.4364458583       37.6169050686  TIP3      2715            0.0000000000
     30466      2908  TIP3      OH2            16.7813397489       22.5633701268       25.3419361910  TIP3      2716            0.0000000000
     30467      2908  TIP3      H1             17.2415824444       22.2880529973       26.1655226187  TIP3      2716            0.0000000000
     30468      2908  TIP3      H2             16.3528026589       21.7475158000       25.0566702310  TIP3      2716            0.0000000000
     30469      2909  TIP3      OH2             2.6878741902       23.3009349355       30.1439864372  TIP3      2717            0.0000000000
     30470      2909  TIP3      H1              3.1374511794       22.4272750780       30.1365938455  TIP3      2717            0.0000000000
     30471      2909  TIP3      H2              3.4502532987       23.9106181707       30.1406228421  TIP3      2717            0.0000000000
     30472      2910  TIP3      OH2             1.1648382662       26.2706324451       30.8217836442  TIP3      2718            0.0000000000
     30473      2910  TIP3      H1              1.8089479361       26.0922985014       30.1070710867  TIP3      2718            0.0000000000
     30474      2910  TIP3      H2              1.4198243280       27.1587968160       31.0937150103  TIP3      2718            0.0000000000
     30475      2911  TIP3      OH2            18.8681127945       22.8676223267       36.7693003599  TIP3      2719            0.0000000000
     30476      2911  TIP3      H1             18.1016458811       23.1736856320       37.2826214149  TIP3      2719            0.0000000000
     30477      2911  TIP3      H2             18.3921242362       22.3990640826       36.0446465212  TIP3      2719            0.0000000000
     30478      2912  TIP3      OH2            19.5316486392       22.2266261650       21.7690120394  TIP3      2720            0.0000000000
     30479      2912  TIP3      H1             19.8122415862       21.6251516758       21.0369164669  TIP3      2720            0.0000000000
     30480      2912  TIP3      H2             19.2051606140       22.9744746595       21.2553323003  TIP3      2720            0.0000000000
     30481      2913  TIP3      OH2             1.2885951301       22.7009311579       24.9789601095  TIP3      2721            0.0000000000
     30482      2913  TIP3      H1              0.3287652226       22.6250786752       24.8466804094  TIP3      2721            0.0000000000
     30483      2913  TIP3      H2              1.6576247282       21.9736466382       24.4457948734  TIP3      2721            0.0000000000
     30484      2914  TIP3      OH2             1.1488810401       21.1079098062       33.0176367632  TIP3      2722            0.0000000000
     30485      2914  TIP3      H1              0.5079325078       20.6983745102       33.6314330831  TIP3      2722            0.0000000000
     30486      2914  TIP3      H2              0.6583837193       21.8325222887       32.6182135775  TIP3      2722            0.0000000000
     30487      2915  TIP3      OH2             3.6641226391       34.6820609021       37.0760136652  TIP3      2723            0.0000000000
     30488      2915  TIP3      H1              2.7771365105       34.8490761436       36.7247280480  TIP3      2723            0.0000000000
     30489      2915  TIP3      H2              3.5249420001       33.8953154319       37.6294894839  TIP3      2723            0.0000000000
     30490      2916  TIP3      OH2             6.4627090096       35.3522248163       33.4970604603  TIP3      2724            0.0000000000
     30491      2916  TIP3      H1              5.9772652780       35.8294275838       32.8199644698  TIP3      2724            0.0000000000
     30492      2916  TIP3      H2              7.2914021605       35.1526750735       33.0138534937  TIP3      2724            0.0000000000
     30493      2917  TIP3      OH2            17.2688440639       21.1608286798       35.3031280276  TIP3      2725            0.0000000000
     30494      2917  TIP3      H1             16.5369182729       21.4614863645       34.7524721619  TIP3      2725            0.0000000000
     30495      2917  TIP3      H2             17.6816662644       20.5350652206       34.6610762231  TIP3      2725            0.0000000000
     30496      2918  TIP3      OH2             7.1474917305       36.0823247025       30.3487823740  TIP3      2726            0.0000000000
     30497      2918  TIP3      H1              6.7704705098       35.3747831225       29.7893257105  TIP3      2726            0.0000000000
     30498      2918  TIP3      H2              7.7718990155       35.5402670315       30.8774814101  TIP3      2726            0.0000000000
     30499      2919  TIP3      OH2            10.9440168747       21.5767951056       29.0575747869  TIP3      2727            0.0000000000
     30500      2919  TIP3      H1             10.1679685449       21.0616776628       29.3792512059  TIP3      2727            0.0000000000
     30501      2919  TIP3      H2             11.6760158103       20.9498716136       29.1369645816  TIP3      2727            0.0000000000
     30502      2920  TIP3      OH2            16.7573484725       20.0195599721       29.2026609525  TIP3      2728            0.0000000000
     30503      2920  TIP3      H1             17.3137978568       20.7423296418       28.8380665089  TIP3      2728            0.0000000000
     30504      2920  TIP3      H2             15.8636522220       20.3249633879       28.9622138805  TIP3      2728            0.0000000000
     30505      2921  TIP3      OH2            18.1442853152       21.6362732987       27.5354233390  TIP3      2729            0.0000000000
     30506      2921  TIP3      H1             18.6690721539       20.8829365111       27.1863194743  TIP3      2729            0.0000000000
     30507      2921  TIP3      H2             18.8102095287       22.3614829080       27.5254564727  TIP3      2729            0.0000000000
     30508      2922  TIP3      OH2             3.4553892272       20.3175354645       27.4042646778  TIP3      2730            0.0000000000
     30509      2922  TIP3      H1              3.0440520135       20.7830889051       26.6556615903  TIP3      2730            0.0000000000
     30510      2922  TIP3      H2              4.0153390558       19.6776679087       26.9267022936  TIP3      2730            0.0000000000
     30511      2923  TIP3      OH2             2.4152302400       20.9217120933       22.7274031368  TIP3      2731            0.0000000000
     30512      2923  TIP3      H1              3.0026225486       20.9057391927       21.9572995536  TIP3      2731            0.0000000000
     30513      2923  TIP3      H2              2.0030542804       20.0382056730       22.6875262368  TIP3      2731            0.0000000000
     30514      2924  TIP3      OH2             8.2448519043       20.4416335692       26.9876290283  TIP3      2732            0.0000000000
     30515      2924  TIP3      H1              9.0145009637       20.7119303078       26.4630412659  TIP3      2732            0.0000000000
     30516      2924  TIP3      H2              8.5771594989       20.5299191996       27.8956834632  TIP3      2732            0.0000000000
     30517      2925  TIP3      OH2            14.0948704223       20.6749133504       28.2915834103  TIP3      2733            0.0000000000
     30518      2925  TIP3      H1             14.0222585245       20.8635410992       27.3513047165  TIP3      2733            0.0000000000
     30519      2925  TIP3      H2             13.5334321299       19.8774350200       28.3715084511  TIP3      2733            0.0000000000
     30520      2926  TIP3      OH2            14.9951163435       20.5422331593       23.3793851324  TIP3      2734            0.0000000000
     30521      2926  TIP3      H1             14.2790290235       21.1441712589       23.6116105103  TIP3      2734            0.0000000000
     30522      2926  TIP3      H2             14.7336819726       19.7520791907       23.9092191898  TIP3      2734            0.0000000000
     30523      2927  TIP3      OH2             2.1220790952      -36.9248432377       24.2704000928  TIP3      2735            0.0000000000
     30524      2927  TIP3      H1              2.0284062385      -37.4471383937       23.4702160656  TIP3      2735            0.0000000000
     30525      2927  TIP3      H2              2.3017597711      -36.0483392900       23.8786241007  TIP3      2735            0.0000000000
     30526      2928  TIP3      OH2             9.6736597545       23.2452672161       23.1788905852  TIP3      2736            0.0000000000
     30527      2928  TIP3      H1              9.0869328265       22.5946939406       23.5943616415  TIP3      2736            0.0000000000
     30528      2928  TIP3      H2              9.6498032160       23.9550084824       23.8572459183  TIP3      2736            0.0000000000
     30529      2929  TIP3      OH2             3.3582308393       21.3621688314       36.2543684648  TIP3      2737            0.0000000000
     30530      2929  TIP3      H1              2.8469738026       20.5344307451       36.3529030639  TIP3      2737            0.0000000000
     30531      2929  TIP3      H2              4.1138055057       21.1873613290       36.8621010784  TIP3      2737            0.0000000000
     30532      2930  TIP3      OH2             5.3711313981       20.7405457956       38.1502474446  TIP3      2738            0.0000000000
     30533      2930  TIP3      H1              6.1271670399       20.1854092424       37.8880589842  TIP3      2738            0.0000000000
     30534      2930  TIP3      H2              4.8586502583       20.0925670815       38.6786428185  TIP3      2738            0.0000000000
     30535      2931  TIP3      OH2            13.8502485310       19.8910972245       38.6199203193  TIP3      2739            0.0000000000
     30536      2931  TIP3      H1             14.0684565990       19.4456335655       39.4651009686  TIP3      2739            0.0000000000
     30537      2931  TIP3      H2             14.7070383372       19.8121600891       38.1479684526  TIP3      2739            0.0000000000
     30538      2932  TIP3      OH2            16.7293837126       36.0188478928       36.9628091693  TIP3      2740            0.0000000000
     30539      2932  TIP3      H1             16.0610902692       35.9320736502       36.2505769919  TIP3      2740            0.0000000000
     30540      2932  TIP3      H2             17.2711486968       36.7423264075       36.5998153854  TIP3      2740            0.0000000000
     30541      2933  TIP3      OH2            31.5496212362       29.8489156270       26.8030721649  TIP3      2741            0.0000000000
     30542      2933  TIP3      H1             31.4070620499       30.8056176509       26.6510811795  TIP3      2741            0.0000000000
     30543      2933  TIP3      H2             31.0979271507       29.4806752304       26.0195063681  TIP3      2741            0.0000000000
     30544      2934  TIP3      OH2            30.2786710631       28.9776705986       30.3516643059  TIP3      2742            0.0000000000
     30545      2934  TIP3      H1             30.5339209944       28.4248733722       31.1189471924  TIP3      2742            0.0000000000
     30546      2934  TIP3      H2             29.9098772101       28.3478896875       29.7110508609  TIP3      2742            0.0000000000
     30547      2935  TIP3      OH2            22.6950050180       28.9683283154       31.3439745351  TIP3      2743            0.0000000000
     30548      2935  TIP3      H1             22.9703479256       28.1007207815       31.6664950606  TIP3      2743            0.0000000000
     30549      2935  TIP3      H2             22.9912308475       29.5483363770       32.0658827215  TIP3      2743            0.0000000000
     30550      2936  TIP3      OH2            34.2966208833       31.9558706074       28.6858459902  TIP3      2744            0.0000000000
     30551      2936  TIP3      H1             34.1383705325       31.2023726097       29.2767028141  TIP3      2744            0.0000000000
     30552      2936  TIP3      H2             34.4146272554       32.6692112455       29.3340417373  TIP3      2744            0.0000000000
     30553      2937  TIP3      OH2            24.1457839885       33.3582377902       29.9769817830  TIP3      2745            0.0000000000
     30554      2937  TIP3      H1             23.8596013900       32.4224085685       29.8732877898  TIP3      2745            0.0000000000
     30555      2937  TIP3      H2             25.1109261293       33.1991839575       29.9565739185  TIP3      2745            0.0000000000
     30556      2938  TIP3      OH2            20.6811701380       26.6361421628       25.5852508218  TIP3      2746            0.0000000000
     30557      2938  TIP3      H1             20.2566791150       27.4931071396       25.7557331327  TIP3      2746            0.0000000000
     30558      2938  TIP3      H2             20.1679599799       26.3285734136       24.8095820851  TIP3      2746            0.0000000000
     30559      2939  TIP3      OH2            20.7328115199       29.1527829721       28.1171237370  TIP3      2747            0.0000000000
     30560      2939  TIP3      H1             20.9749176505       28.2048477677       28.2488052167  TIP3      2747            0.0000000000
     30561      2939  TIP3      H2             21.6191905473       29.5439465207       28.0420459471  TIP3      2747            0.0000000000
     30562      2940  TIP3      OH2            28.7705029225       31.4454128700       30.9034422981  TIP3      2748            0.0000000000
     30563      2940  TIP3      H1             29.0260654769       30.7196421202       30.3062334780  TIP3      2748            0.0000000000
     30564      2940  TIP3      H2             29.5963825636       31.5432987341       31.4191625821  TIP3      2748            0.0000000000
     30565      2941  TIP3      OH2            32.4844411862       26.0728027810       31.3313339041  TIP3      2749            0.0000000000
     30566      2941  TIP3      H1             32.6292321012       25.1545467742       31.6337779368  TIP3      2749            0.0000000000
     30567      2941  TIP3      H2             32.4473497703       25.9494328300       30.3736777004  TIP3      2749            0.0000000000
     30568      2942  TIP3      OH2            25.3482705684       23.7774095730       27.9738136192  TIP3      2750            0.0000000000
     30569      2942  TIP3      H1             25.4446364677       24.6611510041       27.5467276385  TIP3      2750            0.0000000000
     30570      2942  TIP3      H2             24.7976155273       23.3510743226       27.2830265000  TIP3      2750            0.0000000000
     30571      2943  TIP3      OH2            33.0044911388       24.0015418730       26.6077243485  TIP3      2751            0.0000000000
     30572      2943  TIP3      H1             33.6543795628       24.0714407904       27.3329565470  TIP3      2751            0.0000000000
     30573      2943  TIP3      H2             33.1579974090       24.8081032325       26.0808541879  TIP3      2751            0.0000000000
     30574      2944  TIP3      OH2            21.8422421918       26.9250933329       28.9023395079  TIP3      2752            0.0000000000
     30575      2944  TIP3      H1             22.4490548998       26.5619285988       29.5634777552  TIP3      2752            0.0000000000
     30576      2944  TIP3      H2             22.0078204741       26.3528248478       28.1338947797  TIP3      2752            0.0000000000
     30577      2945  TIP3      OH2            26.7823091877       28.1433439942       28.5567799696  TIP3      2753            0.0000000000
     30578      2945  TIP3      H1             27.6639408018       27.8089047965       28.7927373160  TIP3      2753            0.0000000000
     30579      2945  TIP3      H2             26.5423031310       27.4655895583       27.9044824328  TIP3      2753            0.0000000000
     30580      2946  TIP3      OH2            24.2642498421       22.9529684730       32.1643603207  TIP3      2754            0.0000000000
     30581      2946  TIP3      H1             23.8956092992       23.5231147357       31.4527627844  TIP3      2754            0.0000000000
     30582      2946  TIP3      H2             23.4459188656       22.7063246574       32.6424254751  TIP3      2754            0.0000000000
     30583      2947  TIP3      OH2            31.1934299143       32.3637019648       25.8652158759  TIP3      2755            0.0000000000
     30584      2947  TIP3      H1             31.0972635397       32.1878209690       24.9005312885  TIP3      2755            0.0000000000
     30585      2947  TIP3      H2             30.9110938970       33.2863350666       25.9009002501  TIP3      2755            0.0000000000
     30586      2948  TIP3      OH2            26.2146879237       30.6032237946       31.8293732767  TIP3      2756            0.0000000000
     30587      2948  TIP3      H1             25.7229495047       31.3274944623       32.2786052770  TIP3      2756            0.0000000000
     30588      2948  TIP3      H2             27.0215093035       31.0549031497       31.5086313855  TIP3      2756            0.0000000000
     30589      2949  TIP3      OH2            34.4909813139       23.6765749850       28.8517304402  TIP3      2757            0.0000000000
     30590      2949  TIP3      H1             33.6678189081       23.4360784177       29.3239017521  TIP3      2757            0.0000000000
     30591      2949  TIP3      H2             34.9982134831       24.0744906648       29.6005024854  TIP3      2757            0.0000000000
     30592      2950  TIP3      OH2            23.8481566130       24.9611336410       30.1200761922  TIP3      2758            0.0000000000
     30593      2950  TIP3      H1             24.4785336313       25.6098270547       30.4818415500  TIP3      2758            0.0000000000
     30594      2950  TIP3      H2             24.3719984484       24.5684793534       29.3870092581  TIP3      2758            0.0000000000
     30595      2951  TIP3      OH2            24.9981078135       32.6200585083       33.1464999638  TIP3      2759            0.0000000000
     30596      2951  TIP3      H1             24.9533900112       33.5709455223       32.9376026211  TIP3      2759            0.0000000000
     30597      2951  TIP3      H2             24.1504424800       32.5066726078       33.6376526899  TIP3      2759            0.0000000000
     30598      2952  TIP3      OH2            21.0356163735       32.5312458026       23.9497605911  TIP3      2760            0.0000000000
     30599      2952  TIP3      H1             21.1297881808       32.7810586549       23.0135190213  TIP3      2760            0.0000000000
     30600      2952  TIP3      H2             21.5528034198       33.2035071118       24.4479135992  TIP3      2760            0.0000000000
     30601      2953  TIP3      OH2            34.7443743053       34.0305270021       30.9177088190  TIP3      2761            0.0000000000
     30602      2953  TIP3      H1             33.8539665957       34.3550663704       31.1527588035  TIP3      2761            0.0000000000
     30603      2953  TIP3      H2             35.0789713223       34.7479939879       30.3594782791  TIP3      2761            0.0000000000
     30604      2954  TIP3      OH2            35.1742391102       22.5637636969       31.9488418935  TIP3      2762            0.0000000000
     30605      2954  TIP3      H1             34.2351739547       22.6221799930       31.7083976867  TIP3      2762            0.0000000000
     30606      2954  TIP3      H2             35.4652379524       23.4512291465       31.6601093691  TIP3      2762            0.0000000000
     30607      2955  TIP3      OH2            27.8175520820       20.3449110096       29.5141938578  TIP3      2763            0.0000000000
     30608      2955  TIP3      H1             27.4859808493       19.4552487439       29.7193687904  TIP3      2763            0.0000000000
     30609      2955  TIP3      H2             27.0567022286       20.8825636559       29.8412974858  TIP3      2763            0.0000000000
     30610      2956  TIP3      OH2            33.2627168886       35.1748131603       28.0031465082  TIP3      2764            0.0000000000
     30611      2956  TIP3      H1             33.4943641810       34.4297304828       27.4064514174  TIP3      2764            0.0000000000
     30612      2956  TIP3      H2             33.5971914048       35.8813929112       27.4294297930  TIP3      2764            0.0000000000
     30613      2957  TIP3      OH2            34.2723235273       33.3965657464       26.1763493679  TIP3      2765            0.0000000000
     30614      2957  TIP3      H1             34.2104759450       32.7413598525       25.4500230882  TIP3      2765            0.0000000000
     30615      2957  TIP3      H2             34.4604274305       32.8091992506       26.9366211790  TIP3      2765            0.0000000000
     30616      2958  TIP3      OH2            35.2154708966       32.2864116685       34.5923439660  TIP3      2766            0.0000000000
     30617      2958  TIP3      H1             35.6432203644       31.5990145446       34.0440551906  TIP3      2766            0.0000000000
     30618      2958  TIP3      H2             35.6462735222       33.0974648676       34.2680608583  TIP3      2766            0.0000000000
     30619      2959  TIP3      OH2            30.4715795386       29.1964579246       24.3740453399  TIP3      2767            0.0000000000
     30620      2959  TIP3      H1             29.7663791425       29.6176445271       23.8490008419  TIP3      2767            0.0000000000
     30621      2959  TIP3      H2             31.2176923708       29.2271766762       23.7355047884  TIP3      2767            0.0000000000
     30622      2960  TIP3      OH2            30.4063961037       27.6812621055       21.7525622594  TIP3      2768            0.0000000000
     30623      2960  TIP3      H1             31.1611528245       28.2092260875       22.0536254569  TIP3      2768            0.0000000000
     30624      2960  TIP3      H2             30.8189787475       27.1852815601       21.0395901293  TIP3      2768            0.0000000000
     30625      2961  TIP3      OH2            33.8792550522       29.4215600737       25.3158602469  TIP3      2769            0.0000000000
     30626      2961  TIP3      H1             33.1671865610       29.6768319006       25.9489961634  TIP3      2769            0.0000000000
     30627      2961  TIP3      H2             34.4193311313       28.7802821666       25.8151112157  TIP3      2769            0.0000000000
     30628      2962  TIP3      OH2            33.4670870290       27.4860653684       34.4808411450  TIP3      2770            0.0000000000
     30629      2962  TIP3      H1             33.7450466052       28.4096246718       34.6077550015  TIP3      2770            0.0000000000
     30630      2962  TIP3      H2             32.7277517145       27.6390172038       33.8682658632  TIP3      2770            0.0000000000
     30631      2963  TIP3      OH2            25.3049973191       30.0485600462       27.3000129309  TIP3      2771            0.0000000000
     30632      2963  TIP3      H1             25.1095933644       29.8247943882       26.3706248070  TIP3      2771            0.0000000000
     30633      2963  TIP3      H2             25.8812929410       29.3182614005       27.5833820277  TIP3      2771            0.0000000000
     30634      2964  TIP3      OH2            26.7190521173       33.1550171314       29.6525867532  TIP3      2772            0.0000000000
     30635      2964  TIP3      H1             27.0084100816       32.9104887774       28.7558016118  TIP3      2772            0.0000000000
     30636      2964  TIP3      H2             27.3632048607       32.7070094997       30.2341894425  TIP3      2772            0.0000000000
     30637      2965  TIP3      OH2            25.5046327465       28.2800574891       30.8559638772  TIP3      2773            0.0000000000
     30638      2965  TIP3      H1             25.9100559278       28.3853224383       29.9674341289  TIP3      2773            0.0000000000
     30639      2965  TIP3      H2             25.7823611256       29.1439295129       31.2481823435  TIP3      2773            0.0000000000
     30640      2966  TIP3      OH2            32.1894210960       34.5060403590       31.7136276500  TIP3      2774            0.0000000000
     30641      2966  TIP3      H1             32.3779501163       34.9302606849       32.5710324379  TIP3      2774            0.0000000000
     30642      2966  TIP3      H2             32.0000891687       33.5950013397       32.0095478337  TIP3      2774            0.0000000000
     30643      2967  TIP3      OH2            26.5742901524       33.1712270406       35.4682440693  TIP3      2775            0.0000000000
     30644      2967  TIP3      H1             25.8877976994       33.6254666869       35.9971451404  TIP3      2775            0.0000000000
     30645      2967  TIP3      H2             26.0955395687       33.0428595338       34.6182891218  TIP3      2775            0.0000000000
     30646      2968  TIP3      OH2            32.8413197785       28.5210213451       23.0147742186  TIP3      2776            0.0000000000
     30647      2968  TIP3      H1             33.3849195143       28.8816908775       23.7562318820  TIP3      2776            0.0000000000
     30648      2968  TIP3      H2             33.0771140706       29.1027655783       22.2473697179  TIP3      2776            0.0000000000
     30649      2969  TIP3      OH2            23.4942684516       29.4529796046       34.0874303847  TIP3      2777            0.0000000000
     30650      2969  TIP3      H1             23.7969929133       30.3102339314       34.4276211642  TIP3      2777            0.0000000000
     30651      2969  TIP3      H2             22.7487022520       29.2998555508       34.6990112719  TIP3      2777            0.0000000000
     30652      2970  TIP3      OH2            29.9758975504       35.7482802707       26.8981314642  TIP3      2778            0.0000000000
     30653      2970  TIP3      H1             29.9879635844       36.7137988829       27.0258396537  TIP3      2778            0.0000000000
     30654      2970  TIP3      H2             29.8107361585       35.7269110762       25.9391517918  TIP3      2778            0.0000000000
     30655      2971  TIP3      OH2            24.7739019476       35.1260028364       36.2773368739  TIP3      2779            0.0000000000
     30656      2971  TIP3      H1             24.7713888218       35.1083262081       35.2980081716  TIP3      2779            0.0000000000
     30657      2971  TIP3      H2             23.8800096698       34.7664582730       36.4952102427  TIP3      2779            0.0000000000
     30658      2972  TIP3      OH2            24.4059032728       28.7920771752       24.8406151868  TIP3      2780            0.0000000000
     30659      2972  TIP3      H1             23.9865533509       29.5856734046       24.4196079230  TIP3      2780            0.0000000000
     30660      2972  TIP3      H2             23.6434997547       28.2131463116       24.9203251154  TIP3      2780            0.0000000000
     30661      2973  TIP3      OH2            20.6782667924       31.3619669084       34.0139828522  TIP3      2781            0.0000000000
     30662      2973  TIP3      H1             20.3197456767       31.3850604861       33.1103185828  TIP3      2781            0.0000000000
     30663      2973  TIP3      H2             20.7155347566       30.3920285476       34.1872805730  TIP3      2781            0.0000000000
     30664      2974  TIP3      OH2            20.5222231091       34.1391875235       30.1770102134  TIP3      2782            0.0000000000
     30665      2974  TIP3      H1             21.3476590191       33.6439638607       30.2290187070  TIP3      2782            0.0000000000
     30666      2974  TIP3      H2             20.6269114851       34.7032652813       30.9709302617  TIP3      2782            0.0000000000
     30667      2975  TIP3      OH2            29.2523728630       34.3510997273       34.7135691313  TIP3      2783            0.0000000000
     30668      2975  TIP3      H1             29.6390709498       34.8832223644       35.4205292292  TIP3      2783            0.0000000000
     30669      2975  TIP3      H2             28.4440092338       33.9660412564       35.1024437021  TIP3      2783            0.0000000000
     30670      2976  TIP3      OH2            34.9545545289       26.0105744455       36.8856216863  TIP3      2784            0.0000000000
     30671      2976  TIP3      H1             34.8764044114       26.0258303966       35.9241699441  TIP3      2784            0.0000000000
     30672      2976  TIP3      H2             35.9298054318       25.8769710217       36.9923273027  TIP3      2784            0.0000000000
     30673      2977  TIP3      OH2            22.9310888154       32.6613465045       34.8090508972  TIP3      2785            0.0000000000
     30674      2977  TIP3      H1             23.0513912894       32.2886200699       35.7134797088  TIP3      2785            0.0000000000
     30675      2977  TIP3      H2             22.1169695094       32.2092215704       34.4937478068  TIP3      2785            0.0000000000
     30676      2978  TIP3      OH2            25.5692335722       21.4899505584       30.3614469134  TIP3      2786            0.0000000000
     30677      2978  TIP3      H1             24.6786260609       21.3199357610       29.9816234790  TIP3      2786            0.0000000000
     30678      2978  TIP3      H2             25.3708571490       22.2287833832       30.9592125151  TIP3      2786            0.0000000000
     30679      2979  TIP3      OH2            30.1747739037       20.7771476002       33.8251933179  TIP3      2787            0.0000000000
     30680      2979  TIP3      H1             30.7381411623       20.2936213306       34.4676947181  TIP3      2787            0.0000000000
     30681      2979  TIP3      H2             29.2909574017       20.6807983117       34.2282467350  TIP3      2787            0.0000000000
     30682      2980  TIP3      OH2            33.2704204771       24.6873787875       34.5973449656  TIP3      2788            0.0000000000
     30683      2980  TIP3      H1             32.8684301823       24.5154889850       35.4742057776  TIP3      2788            0.0000000000
     30684      2980  TIP3      H2             33.3510976061       25.6580975910       34.6282290043  TIP3      2788            0.0000000000
     30685      2981  TIP3      OH2            33.1762159091       29.8513064451       20.7875604862  TIP3      2789            0.0000000000
     30686      2981  TIP3      H1             33.0386184389       29.6392481055       19.8522508406  TIP3      2789            0.0000000000
     30687      2981  TIP3      H2             34.1416216707       30.0797518160       20.7826778572  TIP3      2789            0.0000000000
     30688      2982  TIP3      OH2            29.7575477176       23.1461574956       21.9613751624  TIP3      2790            0.0000000000
     30689      2982  TIP3      H1             29.0545029623       22.6899427787       22.4467411996  TIP3      2790            0.0000000000
     30690      2982  TIP3      H2             29.2576292492       23.7198149552       21.3680629521  TIP3      2790            0.0000000000
     30691      2983  TIP3      OH2            25.4584941859       26.0089330265       32.1139149884  TIP3      2791            0.0000000000
     30692      2983  TIP3      H1             24.6369731499       26.4055291819       32.4534235915  TIP3      2791            0.0000000000
     30693      2983  TIP3      H2             25.7977247979       26.8017945241       31.6235649821  TIP3      2791            0.0000000000
     30694      2984  TIP3      OH2            25.5588000166       26.0641734977       26.6411028445  TIP3      2792            0.0000000000
     30695      2984  TIP3      H1             24.5839581915       26.1177122430       26.5103514064  TIP3      2792            0.0000000000
     30696      2984  TIP3      H2             25.8679468255       25.9469896228       25.7231597623  TIP3      2792            0.0000000000
     30697      2985  TIP3      OH2            31.1181792213       26.7766128667       25.5286842979  TIP3      2793            0.0000000000
     30698      2985  TIP3      H1             30.8263022123       27.6468360474       25.1662712562  TIP3      2793            0.0000000000
     30699      2985  TIP3      H2             31.5923886656       26.3964777112       24.7495943849  TIP3      2793            0.0000000000
     30700      2986  TIP3      OH2            29.8944039435       27.2269201025       36.8016463485  TIP3      2794            0.0000000000
     30701      2986  TIP3      H1             29.5235298940       26.4346792505       37.2671427734  TIP3      2794            0.0000000000
     30702      2986  TIP3      H2             30.7544598514       27.3422339805       37.2367277364  TIP3      2794            0.0000000000
     30703      2987  TIP3      OH2            32.3485842584       26.2942316913       28.3064672033  TIP3      2795            0.0000000000
     30704      2987  TIP3      H1             31.8892040809       27.0412878223       27.8811539817  TIP3      2795            0.0000000000
     30705      2987  TIP3      H2             32.2063612741       25.6285265886       27.6083885446  TIP3      2795            0.0000000000
     30706      2988  TIP3      OH2            22.5728974389       26.5379834962       33.3005613314  TIP3      2796            0.0000000000
     30707      2988  TIP3      H1             22.7995759098       27.3902005306       33.7151870713  TIP3      2796            0.0000000000
     30708      2988  TIP3      H2             21.6516305105       26.3706485677       33.5805065592  TIP3      2796            0.0000000000
     30709      2989  TIP3      OH2            20.2572684409       23.4297580173       27.6100336941  TIP3      2797            0.0000000000
     30710      2989  TIP3      H1             20.9861946198       23.4294347395       28.2453970865  TIP3      2797            0.0000000000
     30711      2989  TIP3      H2             20.6667567903       23.1728731747       26.7645813989  TIP3      2797            0.0000000000
     30712      2990  TIP3      OH2            31.1046318232       28.0063813609       32.7350982095  TIP3      2798            0.0000000000
     30713      2990  TIP3      H1             31.7443189415       27.3674760231       32.3379307699  TIP3      2798            0.0000000000
     30714      2990  TIP3      H2             30.4457103036       27.4212397496       33.1442838334  TIP3      2798            0.0000000000
     30715      2991  TIP3      OH2            28.1752679584       23.8778367908       27.7723582880  TIP3      2799            0.0000000000
     30716      2991  TIP3      H1             27.2313363936       23.6008837546       27.7495136268  TIP3      2799            0.0000000000
     30717      2991  TIP3      H2             28.1608113280       24.3314801812       28.6257175991  TIP3      2799            0.0000000000
     30718      2992  TIP3      OH2            22.9970582862       25.5048499215       26.4734185323  TIP3      2800            0.0000000000
     30719      2992  TIP3      H1             22.0905435558       25.5990368859       26.1192746439  TIP3      2800            0.0000000000
     30720      2992  TIP3      H2             23.2389663895       24.5724504648       26.2837674392  TIP3      2800            0.0000000000
     30721      2993  TIP3      OH2            26.4315506980       25.6574621004       23.8487313239  TIP3      2801            0.0000000000
     30722      2993  TIP3      H1             27.3026325219       25.3252948188       24.1350658076  TIP3      2801            0.0000000000
     30723      2993  TIP3      H2             26.6869932999       26.3919235876       23.2566956117  TIP3      2801            0.0000000000
     30724      2994  TIP3      OH2            32.4173378256       23.0684220583       30.7718117286  TIP3      2802            0.0000000000
     30725      2994  TIP3      H1             31.8096510079       22.9771527216       31.5346954901  TIP3      2802            0.0000000000
     30726      2994  TIP3      H2             31.8230977302       22.6698336503       30.0933048612  TIP3      2802            0.0000000000
     30727      2995  TIP3      OH2            23.2035411799       31.2330758528       37.0497404564  TIP3      2803            0.0000000000
     30728      2995  TIP3      H1             23.8763546153       31.2176531029       37.7686022378  TIP3      2803            0.0000000000
     30729      2995  TIP3      H2             22.3858030948       31.0641045815       37.5673130308  TIP3      2803            0.0000000000
     30730      2996  TIP3      OH2            29.1413624019       26.3449807679       29.4803861204  TIP3      2804            0.0000000000
     30731      2996  TIP3      H1             30.0160473672       25.9702734150       29.3003727496  TIP3      2804            0.0000000000
     30732      2996  TIP3      H2             28.6740965830       25.6312549392       29.9463720294  TIP3      2804            0.0000000000
     30733      2997  TIP3      OH2            23.6806806395       22.9490732990       26.0387551389  TIP3      2805            0.0000000000
     30734      2997  TIP3      H1             23.2465105118       22.1519632162       26.4279123033  TIP3      2805            0.0000000000
     30735      2997  TIP3      H2             23.9742954207       22.6124255954       25.1704311760  TIP3      2805            0.0000000000
     30736      2998  TIP3      OH2            27.8438178289       24.6630531281       31.9162853672  TIP3      2806            0.0000000000
     30737      2998  TIP3      H1             27.0859307255       25.2807243346       31.9430942188  TIP3      2806            0.0000000000
     30738      2998  TIP3      H2             28.5318895665       25.1413196250       32.4223486547  TIP3      2806            0.0000000000
     30739      2999  TIP3      OH2            28.3491753526       31.3886480809       23.7590002473  TIP3      2807            0.0000000000
     30740      2999  TIP3      H1             27.6833107620       30.7259450367       23.4511588884  TIP3      2807            0.0000000000
     30741      2999  TIP3      H2             28.1527436350       31.4234605894       24.7195016356  TIP3      2807            0.0000000000
     30742      3000  TIP3      OH2            35.5724792145       30.2943993609       32.6594819786  TIP3      2808            0.0000000000
     30743      3000  TIP3      H1             36.1067797424       30.2142762591       31.8319526004  TIP3      2808            0.0000000000
     30744      3000  TIP3      H2             34.6654900373       30.3762943894       32.2997628729  TIP3      2808            0.0000000000
     30745      3001  TIP3      OH2            30.4754792815       31.8123905287       35.4645375291  TIP3      2809            0.0000000000
     30746      3001  TIP3      H1             29.8615649975       31.0880320653       35.6750072966  TIP3      2809            0.0000000000
     30747      3001  TIP3      H2             29.8872080532       32.5797061033       35.3415965941  TIP3      2809            0.0000000000
     30748      3002  TIP3      OH2            32.7308104036       25.8874535621       23.5536016193  TIP3      2810            0.0000000000
     30749      3002  TIP3      H1             33.5931365406       25.8683133536       24.0119080129  TIP3      2810            0.0000000000
     30750      3002  TIP3      H2             32.7874109298       26.7520017240       23.0817922060  TIP3      2810            0.0000000000
     30751      3003  TIP3      OH2            23.6442479415       30.6859401480       29.4064498499  TIP3      2811            0.0000000000
     30752      3003  TIP3      H1             24.3577449336       30.4506337635       28.7746399257  TIP3      2811            0.0000000000
     30753      3003  TIP3      H2             23.6182577588       29.9099648677       30.0076131764  TIP3      2811            0.0000000000
     30754      3004  TIP3      OH2            30.8036407240       32.2319922152       23.1731794676  TIP3      2812            0.0000000000
     30755      3004  TIP3      H1             30.6868853201       32.6662378664       22.3172947469  TIP3      2812            0.0000000000
     30756      3004  TIP3      H2             29.8732005903       31.9590864378       23.3685129644  TIP3      2812            0.0000000000
     30757      3005  TIP3      OH2            20.5282145666       28.7624053811       34.7298901578  TIP3      2813            0.0000000000
     30758      3005  TIP3      H1             20.3515347789       28.2571109315       35.5411514520  TIP3      2813            0.0000000000
     30759      3005  TIP3      H2             19.7478727574       28.5762521448       34.1751757720  TIP3      2813            0.0000000000
     30760      3006  TIP3      OH2            27.4597100387       28.3676277797       36.5314209517  TIP3      2814            0.0000000000
     30761      3006  TIP3      H1             27.0814902118       27.8156098389       35.8325511044  TIP3      2814            0.0000000000
     30762      3006  TIP3      H2             28.3994441034       28.0772892143       36.5339132912  TIP3      2814            0.0000000000
     30763      3007  TIP3      OH2            32.2413882082       34.4584285545       34.7944644580  TIP3      2815            0.0000000000
     30764      3007  TIP3      H1             31.4686522896       33.8962843064       34.6715082685  TIP3      2815            0.0000000000
     30765      3007  TIP3      H2             32.2082030540       34.5560431673       35.7665548051  TIP3      2815            0.0000000000
     30766      3008  TIP3      OH2            35.9668355829       34.6325349517       23.4350555671  TIP3      2816            0.0000000000
     30767      3008  TIP3      H1             35.7755988654       34.1699337845       24.2683887269  TIP3      2816            0.0000000000
     30768      3008  TIP3      H2             35.4290625467       34.0832487177       22.8137792337  TIP3      2816            0.0000000000
     30769      3009  TIP3      OH2            33.4033535190       29.9081420371       30.8688470628  TIP3      2817            0.0000000000
     30770      3009  TIP3      H1             32.5181052729       29.6658525368       30.5702044537  TIP3      2817            0.0000000000
     30771      3009  TIP3      H2             33.9359613668       29.2463292974       30.3874724467  TIP3      2817            0.0000000000
     30772      3010  TIP3      OH2            26.0096185003       34.2168631245       26.8532543898  TIP3      2818            0.0000000000
     30773      3010  TIP3      H1             25.9356356627       34.9744730437       26.2518248452  TIP3      2818            0.0000000000
     30774      3010  TIP3      H2             25.0959347217       34.1145368241       27.1223441164  TIP3      2818            0.0000000000
     30775      3011  TIP3      OH2            27.7032561874       31.7184664239       26.3443062211  TIP3      2819            0.0000000000
     30776      3011  TIP3      H1             27.2756778056       32.5496445940       26.0666747808  TIP3      2819            0.0000000000
     30777      3011  TIP3      H2             26.9840348602       31.2582883698       26.8013892300  TIP3      2819            0.0000000000
     30778      3012  TIP3      OH2            27.8979364645       35.0657317223       32.4833348002  TIP3      2820            0.0000000000
     30779      3012  TIP3      H1             28.2013194063       35.9807551659       32.6245260775  TIP3      2820            0.0000000000
     30780      3012  TIP3      H2             28.4083091966       34.6268466538       33.1983665754  TIP3      2820            0.0000000000
     30781      3013  TIP3      OH2            25.5179709870      -36.8319217235       25.0806286160  TIP3      2821            0.0000000000
     30782      3013  TIP3      H1             24.7448061810      -36.7143328224       25.6362928162  TIP3      2821            0.0000000000
     30783      3013  TIP3      H2             26.1921770791      -36.3377024861       25.6197440308  TIP3      2821            0.0000000000
     30784      3014  TIP3      OH2            31.0003540739       31.7786180312       32.4598785884  TIP3      2822            0.0000000000
     30785      3014  TIP3      H1             31.0672598673       31.7655994134       33.4345102495  TIP3      2822            0.0000000000
     30786      3014  TIP3      H2             31.3602075391       30.8990434679       32.2443718904  TIP3      2822            0.0000000000
     30787      3015  TIP3      OH2            33.6979720817       33.6832105077       22.3740253999  TIP3      2823            0.0000000000
     30788      3015  TIP3      H1             33.6903286342       32.9809040026       23.0678098249  TIP3      2823            0.0000000000
     30789      3015  TIP3      H2             33.0572242740       33.2849796287       21.7696957915  TIP3      2823            0.0000000000
     30790      3016  TIP3      OH2            34.2914108698       36.2683014128       34.5092664007  TIP3      2824            0.0000000000
     30791      3016  TIP3      H1             33.4676279716       35.7359923022       34.5807456598  TIP3      2824            0.0000000000
     30792      3016  TIP3      H2             33.9356654658       37.1619466929       34.5650636867  TIP3      2824            0.0000000000
     30793      3017  TIP3      OH2            21.9780222263       23.5277642037       33.7417790843  TIP3      2825            0.0000000000
     30794      3017  TIP3      H1             21.1547083663       24.0558854899       33.6257471093  TIP3      2825            0.0000000000
     30795      3017  TIP3      H2             21.6526197393       22.7777654109       34.2668402420  TIP3      2825            0.0000000000
     30796      3018  TIP3      OH2            34.3578244394       31.5809740580       23.9641659272  TIP3      2826            0.0000000000
     30797      3018  TIP3      H1             34.1197657602       30.7934063547       24.5118696323  TIP3      2826            0.0000000000
     30798      3018  TIP3      H2             34.8520686768       31.1662138215       23.2306218073  TIP3      2826            0.0000000000
     30799      3019  TIP3      OH2            21.9636807620       35.0060994503       32.4139563859  TIP3      2827            0.0000000000
     30800      3019  TIP3      H1             22.6079343185       34.4431206079       32.8576907804  TIP3      2827            0.0000000000
     30801      3019  TIP3      H2             22.0021711171       35.8274895245       32.9266923797  TIP3      2827            0.0000000000
     30802      3020  TIP3      OH2            26.4980404988       33.6780460265       22.8584515256  TIP3      2828            0.0000000000
     30803      3020  TIP3      H1             27.1163773172       32.9298764777       22.9368413584  TIP3      2828            0.0000000000
     30804      3020  TIP3      H2             27.0965883434       34.4354915192       22.9403683802  TIP3      2828            0.0000000000
     30805      3021  TIP3      OH2            23.4135294047       30.8266243453       23.4128469953  TIP3      2829            0.0000000000
     30806      3021  TIP3      H1             22.6060911715       31.3606106619       23.4496785469  TIP3      2829            0.0000000000
     30807      3021  TIP3      H2             23.7752324992       31.0861318035       22.5451190666  TIP3      2829            0.0000000000
     30808      3022  TIP3      OH2            30.7117253940       23.6274767980       33.5995147325  TIP3      2830            0.0000000000
     30809      3022  TIP3      H1             31.5876041525       23.8535632186       33.9590125159  TIP3      2830            0.0000000000
     30810      3022  TIP3      H2             30.6035312231       22.6866569947       33.8423249056  TIP3      2830            0.0000000000
     30811      3023  TIP3      OH2            31.7272495363       22.6708105927       24.6002036957  TIP3      2831            0.0000000000
     30812      3023  TIP3      H1             31.6872658823       23.4422240973       24.0093351854  TIP3      2831            0.0000000000
     30813      3023  TIP3      H2             32.4298381841       22.9327573262       25.2318615396  TIP3      2831            0.0000000000
     30814      3024  TIP3      OH2            29.7757840511       36.1430101585       23.3072418080  TIP3      2832            0.0000000000
     30815      3024  TIP3      H1             28.9059754400       36.5559105314       23.1796782877  TIP3      2832            0.0000000000
     30816      3024  TIP3      H2             29.7546684372       35.6090176059       22.4895816566  TIP3      2832            0.0000000000
     30817      3025  TIP3      OH2            28.7949022258       24.7722562737       25.1798589699  TIP3      2833            0.0000000000
     30818      3025  TIP3      H1             29.5441167248       25.3800622699       25.3062527962  TIP3      2833            0.0000000000
     30819      3025  TIP3      H2             28.5417902109       24.5453299807       26.0980638742  TIP3      2833            0.0000000000
     30820      3026  TIP3      OH2            29.4725797403       25.9859565715       34.4204652802  TIP3      2834            0.0000000000
     30821      3026  TIP3      H1             29.7717600037       26.3492500996       35.2849604660  TIP3      2834            0.0000000000
     30822      3026  TIP3      H2             29.9397063868       25.1245250823       34.3714622536  TIP3      2834            0.0000000000
     30823      3027  TIP3      OH2            29.5223516312       21.5771093924       25.9179349587  TIP3      2835            0.0000000000
     30824      3027  TIP3      H1             29.2653929774       22.3155679387       26.5082973340  TIP3      2835            0.0000000000
     30825      3027  TIP3      H2             30.3419618399       21.9684558172       25.5388549735  TIP3      2835            0.0000000000
     30826      3028  TIP3      OH2            27.0978400712      -36.8014936553       22.9296406589  TIP3      2836            0.0000000000
     30827      3028  TIP3      H1             27.1511073610      -35.8295161000       22.8216962454  TIP3      2836            0.0000000000
     30828      3028  TIP3      H2             26.5273775640      -36.8634642129       23.7271665697  TIP3      2836            0.0000000000
     30829      3029  TIP3      OH2            25.1539001965       23.0516302945       23.5003986373  TIP3      2837            0.0000000000
     30830      3029  TIP3      H1             25.4095506845       23.9908606853       23.5750403137  TIP3      2837            0.0000000000
     30831      3029  TIP3      H2             26.0469525049       22.6519165826       23.4422450517  TIP3      2837            0.0000000000
     30832      3030  TIP3      OH2            35.9230657915       23.2190981527       35.2265243149  TIP3      2838            0.0000000000
     30833      3030  TIP3      H1             34.9841324186       23.4701927593       35.2980372756  TIP3      2838            0.0000000000
     30834      3030  TIP3      H2             36.2044962337       23.8035880229       34.5020094200  TIP3      2838            0.0000000000
     30835      3031  TIP3      OH2            34.5206364293       27.8872902847       29.2387946569  TIP3      2839            0.0000000000
     30836      3031  TIP3      H1             33.7389454205       27.4127681394       28.9015087663  TIP3      2839            0.0000000000
     30837      3031  TIP3      H2             34.9483444506       27.1714450469       29.7323130443  TIP3      2839            0.0000000000
     30838      3032  TIP3      OH2            22.9827431883       21.0789951309       29.8561067057  TIP3      2840            0.0000000000
     30839      3032  TIP3      H1             22.9063726977       20.8443608184       28.9097052470  TIP3      2840            0.0000000000
     30840      3032  TIP3      H2             22.7507885193       20.2065461780       30.2663779936  TIP3      2840            0.0000000000
     30841      3033  TIP3      OH2            22.3595824449       34.3438413427       25.5311120495  TIP3      2841            0.0000000000
     30842      3033  TIP3      H1             21.8285648162       34.2388311771       26.3217537102  TIP3      2841            0.0000000000
     30843      3033  TIP3      H2             22.0083294730       35.1947964291       25.1858019098  TIP3      2841            0.0000000000
     30844      3034  TIP3      OH2            25.8767420304       35.7164166307       39.4217005985  TIP3      2842            0.0000000000
     30845      3034  TIP3      H1             26.7135839693       36.1242418434       39.1443963630  TIP3      2842            0.0000000000
     30846      3034  TIP3      H2             25.6540428104       35.1396697644       38.6774495346  TIP3      2842            0.0000000000
     30847      3035  TIP3      OH2            29.2873633661       34.3569207326       21.1102578588  TIP3      2843            0.0000000000
     30848      3035  TIP3      H1             28.3765489889       34.1492859241       20.8629127469  TIP3      2843            0.0000000000
     30849      3035  TIP3      H2             29.6265104887       34.6386030648       20.2446625415  TIP3      2843            0.0000000000
     30850      3036  TIP3      OH2            31.8859319257       34.8203450616       37.6877112307  TIP3      2844            0.0000000000
     30851      3036  TIP3      H1             31.6323143888       33.9943379211       38.1710463434  TIP3      2844            0.0000000000
     30852      3036  TIP3      H2             32.8260562548       34.8580172600       37.9620358432  TIP3      2844            0.0000000000
     30853      3037  TIP3      OH2            35.0662620881       35.5454254364       20.6179264718  TIP3      2845            0.0000000000
     30854      3037  TIP3      H1             34.4299517319       34.9722310137       21.0983680599  TIP3      2845            0.0000000000
     30855      3037  TIP3      H2             35.5348892970       34.8364490029       20.1504898014  TIP3      2845            0.0000000000
     30856      3038  TIP3      OH2            20.6988731344       31.1259845985       38.0491928299  TIP3      2846            0.0000000000
     30857      3038  TIP3      H1             20.1068848925       30.3731654059       38.1803101850  TIP3      2846            0.0000000000
     30858      3038  TIP3      H2             20.2423112008       31.6675411774       37.3629201559  TIP3      2846            0.0000000000
     30859      3039  TIP3      OH2            27.4171136676       31.0065845155       37.0663741437  TIP3      2847            0.0000000000
     30860      3039  TIP3      H1             27.0269710877       31.5656176057       36.3631978181  TIP3      2847            0.0000000000
     30861      3039  TIP3      H2             27.3947132428       30.0808706518       36.7192479141  TIP3      2847            0.0000000000
     30862      3040  TIP3      OH2            33.0061957740       30.8144640411       34.8967336784  TIP3      2848            0.0000000000
     30863      3040  TIP3      H1             33.7375128998       31.4774815384       34.9381516924  TIP3      2848            0.0000000000
     30864      3040  TIP3      H2             32.2132163865       31.3424113352       35.1217369737  TIP3      2848            0.0000000000
     30865      3041  TIP3      OH2            22.4067104587       28.3144348574       37.2970756411  TIP3      2849            0.0000000000
     30866      3041  TIP3      H1             22.9797092997       27.7061744368       37.7727416165  TIP3      2849            0.0000000000
     30867      3041  TIP3      H2             22.3598464280       29.0372855329       37.9539407390  TIP3      2849            0.0000000000
     30868      3042  TIP3      OH2            26.4756404387       29.6892825887       23.0705616561  TIP3      2850            0.0000000000
     30869      3042  TIP3      H1             25.7504651514       29.2988440554       23.5863010359  TIP3      2850            0.0000000000
     30870      3042  TIP3      H2             26.6756471457       29.0282465299       22.3704267507  TIP3      2850            0.0000000000
     30871      3043  TIP3      OH2            25.3943851017       27.4454438003       34.4801168901  TIP3      2851            0.0000000000
     30872      3043  TIP3      H1             24.7969008412       28.1581689762       34.7644024925  TIP3      2851            0.0000000000
     30873      3043  TIP3      H2             26.1039060878       27.9512629350       34.0221505013  TIP3      2851            0.0000000000
     30874      3044  TIP3      OH2            27.5472559266       27.8684324241       21.2887730826  TIP3      2852            0.0000000000
     30875      3044  TIP3      H1             27.3177199603       28.2285152052       20.3980323785  TIP3      2852            0.0000000000
     30876      3044  TIP3      H2             28.5249062230       27.9289886112       21.2473066760  TIP3      2852            0.0000000000
     30877      3045  TIP3      OH2            30.7216276801       29.9907139857       38.4275599557  TIP3      2853            0.0000000000
     30878      3045  TIP3      H1             31.4901388907       29.7521333143       37.8610236615  TIP3      2853            0.0000000000
     30879      3045  TIP3      H2             30.5689328724       29.1506646388       38.8897212525  TIP3      2853            0.0000000000
     30880      3046  TIP3      OH2            26.6916029775       24.8248910593       35.6539786986  TIP3      2854            0.0000000000
     30881      3046  TIP3      H1             26.9467592243       24.0362133637       35.1307015984  TIP3      2854            0.0000000000
     30882      3046  TIP3      H2             27.2976346116       25.5114353777       35.3316778740  TIP3      2854            0.0000000000
     30883      3047  TIP3      OH2            26.5687969684       22.9579863893       33.5712401610  TIP3      2855            0.0000000000
     30884      3047  TIP3      H1             27.0258008423       23.4090857884       32.8219177632  TIP3      2855            0.0000000000
     30885      3047  TIP3      H2             25.7302552113       22.6708736893       33.1408855764  TIP3      2855            0.0000000000
     30886      3048  TIP3      OH2            27.5313879721       28.8613407059       33.4726801042  TIP3      2856            0.0000000000
     30887      3048  TIP3      H1             28.4558219139       29.0709550703       33.2624093643  TIP3      2856            0.0000000000
     30888      3048  TIP3      H2             27.0306375138       29.5210008595       32.9404163591  TIP3      2856            0.0000000000
     30889      3049  TIP3      OH2            32.9320260161       26.3689798770       38.8904311437  TIP3      2857            0.0000000000
     30890      3049  TIP3      H1             32.5248848384       25.6503878055       38.3979858119  TIP3      2857            0.0000000000
     30891      3049  TIP3      H2             33.7609738366       26.4569590077       38.3751685671  TIP3      2857            0.0000000000
     30892      3050  TIP3      OH2            33.2358975864       29.6245501711       37.3771953332  TIP3      2858            0.0000000000
     30893      3050  TIP3      H1             33.3255380108       30.1917370845       36.5788781271  TIP3      2858            0.0000000000
     30894      3050  TIP3      H2             33.9865833851       29.0126318917       37.2647551464  TIP3      2858            0.0000000000
     30895      3051  TIP3      OH2            24.6284319446       25.8852951828       38.0735620256  TIP3      2859            0.0000000000
     30896      3051  TIP3      H1             23.9670774111       25.2793995069       37.6454592381  TIP3      2859            0.0000000000
     30897      3051  TIP3      H2             25.3379393344       25.9661974594       37.4163911832  TIP3      2859            0.0000000000
     30898      3052  TIP3      OH2            27.3779102268       20.4631754160       34.0691186263  TIP3      2860            0.0000000000
     30899      3052  TIP3      H1             27.1398934759       21.4025688328       33.9202241807  TIP3      2860            0.0000000000
     30900      3052  TIP3      H2             26.8806698985       20.0334836770       33.3477046931  TIP3      2860            0.0000000000
     30901      3053  TIP3      OH2            28.6127949071       25.0108059174       37.7766758045  TIP3      2861            0.0000000000
     30902      3053  TIP3      H1             28.1915458880       24.7635554387       38.6150920531  TIP3      2861            0.0000000000
     30903      3053  TIP3      H2             28.0003227208       24.6137820177       37.1386875513  TIP3      2861            0.0000000000
     30904      3054  TIP3      OH2            31.4900494443       24.2039878930       36.6634103211  TIP3      2862            0.0000000000
     30905      3054  TIP3      H1             30.6186872275       23.8826236140       36.9398411285  TIP3      2862            0.0000000000
     30906      3054  TIP3      H2             32.0818424665       23.6020948877       37.1757833155  TIP3      2862            0.0000000000
     30907      3055  TIP3      OH2            33.0545172305       22.6240643776       38.0684719763  TIP3      2863            0.0000000000
     30908      3055  TIP3      H1             32.9247628055       21.6544760140       38.2083820490  TIP3      2863            0.0000000000
     30909      3055  TIP3      H2             32.8957858971       22.9790916832       38.9753927598  TIP3      2863            0.0000000000
     30910      3056  TIP3      OH2            22.7556633380       23.9788302661       37.5830206771  TIP3      2864            0.0000000000
     30911      3056  TIP3      H1             22.4344029782       23.1519507565       37.1738586204  TIP3      2864            0.0000000000
     30912      3056  TIP3      H2             22.6511830120       23.7321696057       38.5414288692  TIP3      2864            0.0000000000
     30913      3057  TIP3      OH2            27.4900323825       20.0962149946       36.8170601970  TIP3      2865            0.0000000000
     30914      3057  TIP3      H1             28.2497296463       19.4951916760       36.6810792472  TIP3      2865            0.0000000000
     30915      3057  TIP3      H2             27.3217847778       20.2738496518       35.8662502303  TIP3      2865            0.0000000000
     30916      3058  TIP3      OH2            27.2397692986       21.3071237197       39.3586228477  TIP3      2866            0.0000000000
     30917      3058  TIP3      H1             27.2461396952       20.7967906308       38.5199856977  TIP3      2866            0.0000000000
     30918      3058  TIP3      H2             26.9545816125       22.1789459675       39.0303508029  TIP3      2866            0.0000000000
     30919      3059  TIP3      OH2            20.4926685122       37.0073576618       28.4696132507  TIP3      2867            0.0000000000
     30920      3059  TIP3      H1             20.0499213675       36.1475347003       28.3451924150  TIP3      2867            0.0000000000
     30921      3059  TIP3      H2             20.3164424322       37.1502415836       29.4125661331  TIP3      2867            0.0000000000
     30922      3060  TIP3      OH2            35.7379883256       32.3182299384       38.8866757911  TIP3      2868            0.0000000000
     30923      3060  TIP3      H1             34.8624835414       32.3302953950       39.3106020200  TIP3      2868            0.0000000000
     30924      3060  TIP3      H2             36.1941069583       32.9493697141       39.4848942400  TIP3      2868            0.0000000000
     30925      3061  TIP3      OH2            36.2452425930       34.5747150981       33.3512590974  TIP3      2869            0.0000000000
     30926      3061  TIP3      H1             35.5517463068       35.1531002198       33.7359554683  TIP3      2869            0.0000000000
     30927      3061  TIP3      H2             35.8516985038       34.3476537699       32.4867343252  TIP3      2869            0.0000000000
     30928      3062  TIP3      OH2            35.8484293957       27.8422023028       26.6771898360  TIP3      2870            0.0000000000
     30929      3062  TIP3      H1             35.3861058383       26.9996994188       26.6811314307  TIP3      2870            0.0000000000
     30930      3062  TIP3      H2             35.6903208604       28.1699773669       27.5883875065  TIP3      2870            0.0000000000
     30931      3063  TIP3      OH2            20.3551828684       29.8489377396       30.6415171669  TIP3      2871            0.0000000000
     30932      3063  TIP3      H1             20.3096840574       29.5872187294       29.6961771451  TIP3      2871            0.0000000000
     30933      3063  TIP3      H2             21.2835027051       29.5806253855       30.8404613268  TIP3      2871            0.0000000000
     30934      3064  TIP3      OH2           -37.0417571631       28.8837492371       36.5797538333  TIP3      2872            0.0000000000
     30935      3064  TIP3      H1            -36.1244332109       28.6177834187       36.8532214718  TIP3      2872            0.0000000000
     30936      3064  TIP3      H2            -36.8834166125       29.6631402674       36.0322585198  TIP3      2872            0.0000000000
     30937      3065  TIP3      OH2            34.9601136298       25.3292458519       25.0345518930  TIP3      2873            0.0000000000
     30938      3065  TIP3      H1             35.4528579331       24.7563892829       25.6350745521  TIP3      2873            0.0000000000
     30939      3065  TIP3      H2             35.5719119339       25.2472461844       24.2688490203  TIP3      2873            0.0000000000
     30940      3066  TIP3      OH2            35.6172592135       25.0048023436       30.9111787258  TIP3      2874            0.0000000000
     30941      3066  TIP3      H1             36.4866166477       25.1457126588       30.5051486484  TIP3      2874            0.0000000000
     30942      3066  TIP3      H2             35.6513709002       25.6847167192       31.6118649213  TIP3      2874            0.0000000000
     30943      3067  TIP3      OH2            35.9849484372       26.4820770973       33.8402968541  TIP3      2875            0.0000000000
     30944      3067  TIP3      H1             35.1093403487       26.8500184729       34.0719309289  TIP3      2875            0.0000000000
     30945      3067  TIP3      H2             36.1720279888       26.9333140808       32.9965753987  TIP3      2875            0.0000000000
     30946      3068  TIP3      OH2            20.5132787118       25.1012410893       36.8413497989  TIP3      2876            0.0000000000
     30947      3068  TIP3      H1             21.3670182870       24.7795926768       37.2142493418  TIP3      2876            0.0000000000
     30948      3068  TIP3      H2             19.9674017746       24.2863965542       36.8832624305  TIP3      2876            0.0000000000
     30949      3069  TIP3      OH2            34.9993352125       22.1285401857       24.8487822214  TIP3      2877            0.0000000000
     30950      3069  TIP3      H1             35.9502013257       21.9702836572       24.6782357861  TIP3      2877            0.0000000000
     30951      3069  TIP3      H2             34.5752473109       21.3853636581       24.4017059665  TIP3      2877            0.0000000000
     30952      3070  TIP3      OH2            21.5738756254       23.3153395509       30.5078654871  TIP3      2878            0.0000000000
     30953      3070  TIP3      H1             21.9513844216       22.4059464888       30.4386131244  TIP3      2878            0.0000000000
     30954      3070  TIP3      H2             22.3040570261       23.8848581344       30.1783976362  TIP3      2878            0.0000000000
     30955      3071  TIP3      OH2            19.7396585075       26.4373720926       30.7260674698  TIP3      2879            0.0000000000
     30956      3071  TIP3      H1             20.3494025456       25.9551807023       30.1467266440  TIP3      2879            0.0000000000
     30957      3071  TIP3      H2             20.0822355189       27.3443229718       30.6735110805  TIP3      2879            0.0000000000
     30958      3072  TIP3      OH2            20.2615314550       22.8177685877       24.8203221387  TIP3      2880            0.0000000000
     30959      3072  TIP3      H1             19.3293050905       22.8650666597       25.0802833439  TIP3      2880            0.0000000000
     30960      3072  TIP3      H2             20.1392639491       22.5447930146       23.8931279335  TIP3      2880            0.0000000000
     30961      3073  TIP3      OH2            20.3864507252       20.9469334951       32.9789196420  TIP3      2881            0.0000000000
     30962      3073  TIP3      H1             19.6958125158       20.2455126705       33.0536811014  TIP3      2881            0.0000000000
     30963      3073  TIP3      H2             19.8864750840       21.5982926616       32.4464940479  TIP3      2881            0.0000000000
     30964      3074  TIP3      OH2            22.2963881956       34.2663849240       37.0133275593  TIP3      2882            0.0000000000
     30965      3074  TIP3      H1             21.7021409493       33.8064000966       36.4037664790  TIP3      2882            0.0000000000
     30966      3074  TIP3      H2             22.4644262992       33.5618244671       37.6606002563  TIP3      2882            0.0000000000
     30967      3075  TIP3      OH2            25.3910762852       35.3472017851       33.4654696553  TIP3      2883            0.0000000000
     30968      3075  TIP3      H1             25.0405964798       35.9510863412       32.7971836966  TIP3      2883            0.0000000000
     30969      3075  TIP3      H2             26.3228227800       35.2003374346       33.1636092877  TIP3      2883            0.0000000000
     30970      3076  TIP3      OH2            23.8286503458       35.7892228229       28.1951494777  TIP3      2884            0.0000000000
     30971      3076  TIP3      H1             23.7390197976       34.9171111723       28.6303781675  TIP3      2884            0.0000000000
     30972      3076  TIP3      H2             24.5703547878       36.1567632102       28.7077340354  TIP3      2884            0.0000000000
     30973      3077  TIP3      OH2            26.0185046212       35.7572684208       30.4523044298  TIP3      2885            0.0000000000
     30974      3077  TIP3      H1             25.7685083645       34.9423425899       29.9704602603  TIP3      2885            0.0000000000
     30975      3077  TIP3      H2             26.5791089896       35.3519627410       31.1546525708  TIP3      2885            0.0000000000
     30976      3078  TIP3      OH2            30.5692587121       21.8818715069       29.2239977782  TIP3      2886            0.0000000000
     30977      3078  TIP3      H1             29.5994701821       21.7636046620       29.2785313569  TIP3      2886            0.0000000000
     30978      3078  TIP3      H2             30.8446829455       21.0698145803       28.7824957376  TIP3      2886            0.0000000000
     30979      3079  TIP3      OH2            35.5187600102       19.9372833126       29.4429035895  TIP3      2887            0.0000000000
     30980      3079  TIP3      H1             35.4886430977       20.3478436593       30.3224498459  TIP3      2887            0.0000000000
     30981      3079  TIP3      H2             34.5755501914       19.8959929623       29.1971443293  TIP3      2887            0.0000000000
     30982      3080  TIP3      OH2            22.4488246653       20.6549102374       26.9300243287  TIP3      2888            0.0000000000
     30983      3080  TIP3      H1             21.5402544748       20.5473300355       26.5917699853  TIP3      2888            0.0000000000
     30984      3080  TIP3      H2             22.8292486191       19.7660508012       26.7505827996  TIP3      2888            0.0000000000
     30985      3081  TIP3      OH2            26.9720104246       20.2338854153       26.6266428642  TIP3      2889            0.0000000000
     30986      3081  TIP3      H1             27.6961942369       20.6855661638       26.1823573723  TIP3      2889            0.0000000000
     30987      3081  TIP3      H2             27.2375696357       20.3169934633       27.5554043749  TIP3      2889            0.0000000000
     30988      3082  TIP3      OH2            32.9892617886       20.3071868729       28.1811263687  TIP3      2890            0.0000000000
     30989      3082  TIP3      H1             32.6304240280       20.0573192207       27.3151641568  TIP3      2890            0.0000000000
     30990      3082  TIP3      H2             32.4658295993       19.6653406119       28.7109367617  TIP3      2890            0.0000000000
     30991      3083  TIP3      OH2            21.1365491709       36.4951673747       24.4393516013  TIP3      2891            0.0000000000
     30992      3083  TIP3      H1             21.2287805165       37.0858936957       23.6484670736  TIP3      2891            0.0000000000
     30993      3083  TIP3      H2             21.0304854525       37.1985781191       25.1122586458  TIP3      2891            0.0000000000
     30994      3084  TIP3      OH2            27.8585224946       22.5982872585       23.9179207919  TIP3      2892            0.0000000000
     30995      3084  TIP3      H1             28.5100831409       22.1313244901       24.4709089703  TIP3      2892            0.0000000000
     30996      3084  TIP3      H2             28.1403142486       23.5090004263       24.1586924054  TIP3      2892            0.0000000000
     30997      3085  TIP3      OH2            22.0639374305       21.3758346257       36.2987411682  TIP3      2893            0.0000000000
     30998      3085  TIP3      H1             21.6373158496       20.5003783219       36.3600212388  TIP3      2893            0.0000000000
     30999      3085  TIP3      H2             22.9036033909       21.2077812687       36.7723129042  TIP3      2893            0.0000000000
     31000      3086  TIP3      OH2            24.3316656433       20.7954934932       38.1290403313  TIP3      2894            0.0000000000
     31001      3086  TIP3      H1             25.1949771000       20.3729293390       37.9769378725  TIP3      2894            0.0000000000
     31002      3086  TIP3      H2             23.8451093036       20.0529532209       38.5287821394  TIP3      2894            0.0000000000
     31003      3087  TIP3      OH2            33.0089691305       20.0128601451       38.4463372173  TIP3      2895            0.0000000000
     31004      3087  TIP3      H1             32.9432829325       19.6499143949       39.3547092268  TIP3      2895            0.0000000000
     31005      3087  TIP3      H2             33.8464220641       19.6364808310       38.1120353082  TIP3      2895            0.0000000000
     31006      3088  TIP3      OH2            35.6115488114       36.3912184278       36.8385855193  TIP3      2896            0.0000000000
     31007      3088  TIP3      H1             35.3198434848       35.9780580234       36.0037007929  TIP3      2896            0.0000000000
     31008      3088  TIP3      H2             36.1535577402       37.1226352394       36.5161619510  TIP3      2896            0.0000000000
     31009      3089  TIP3      OH2           -26.2199072243      -28.8140939953       39.9210867560  TIP3      2897            0.0000000000
     31010      3089  TIP3      H1            -25.4403239508      -28.4770923807       40.4080490599  TIP3      2897            0.0000000000
     31011      3089  TIP3      H2            -25.8166509606      -29.5994740996       39.5105383441  TIP3      2897            0.0000000000
     31012      3090  TIP3      OH2           -23.9824139959      -27.8283354882       41.1014050246  TIP3      2898            0.0000000000
     31013      3090  TIP3      H1            -24.1781961338      -27.3321846129       41.9072810533  TIP3      2898            0.0000000000
     31014      3090  TIP3      H2            -23.3505196449      -27.2376618769       40.6116296291  TIP3      2898            0.0000000000
     31015      3091  TIP3      OH2           -20.2386687280      -35.9853551971       41.5427834307  TIP3      2899            0.0000000000
     31016      3091  TIP3      H1            -21.0643651619      -36.0986677344       42.0418799874  TIP3      2899            0.0000000000
     31017      3091  TIP3      H2            -20.0948618379      -35.0220280328       41.4916913202  TIP3      2899            0.0000000000
     31018      3092  TIP3      OH2           -19.2084845943      -21.6805608728       40.0399934196  TIP3      2900            0.0000000000
     31019      3092  TIP3      H1            -18.9799080052      -20.7251443777       40.0161295582  TIP3      2900            0.0000000000
     31020      3092  TIP3      H2            -18.3644520107      -22.0519503259       40.3424852063  TIP3      2900            0.0000000000
     31021      3093  TIP3      OH2           -23.1026286814      -19.3829790912       40.7651514068  TIP3      2901            0.0000000000
     31022      3093  TIP3      H1            -22.9096978440      -20.0183246362       40.0381811004  TIP3      2901            0.0000000000
     31023      3093  TIP3      H2            -22.7219548186      -19.8928623163       41.5197028208  TIP3      2901            0.0000000000
     31024      3094  TIP3      OH2           -22.1200674742      -26.3208936003       40.1272080750  TIP3      2902            0.0000000000
     31025      3094  TIP3      H1            -22.4514767305      -26.1281040895       39.2249789508  TIP3      2902            0.0000000000
     31026      3094  TIP3      H2            -21.1904595356      -26.5003119154       39.9002249553  TIP3      2902            0.0000000000
     31027      3095  TIP3      OH2           -26.6709660810      -33.0774652494       39.8441868619  TIP3      2903            0.0000000000
     31028      3095  TIP3      H1            -26.9182972463      -32.7145507329       40.7043316019  TIP3      2903            0.0000000000
     31029      3095  TIP3      H2            -27.0956139918      -33.9494158908       39.8815394797  TIP3      2903            0.0000000000
     31030      3096  TIP3      OH2           -30.4227009329      -32.5601331366       39.2683278548  TIP3      2904            0.0000000000
     31031      3096  TIP3      H1            -31.0889298902      -32.8036321334       39.9420357301  TIP3      2904            0.0000000000
     31032      3096  TIP3      H2            -30.7888902274      -31.7356887223       38.9049041998  TIP3      2904            0.0000000000
     31033      3097  TIP3      OH2           -35.7155644496      -31.9681441915       41.5215209550  TIP3      2905            0.0000000000
     31034      3097  TIP3      H1            -35.2358686956      -31.5493922242       42.2714944119  TIP3      2905            0.0000000000
     31035      3097  TIP3      H2            -36.4570293034      -32.4314410378       41.9942468344  TIP3      2905            0.0000000000
     31036      3098  TIP3      OH2           -31.2770904687      -29.3608321527       40.4201975559  TIP3      2906            0.0000000000
     31037      3098  TIP3      H1            -31.6664865708      -30.0717162661       39.8853052774  TIP3      2906            0.0000000000
     31038      3098  TIP3      H2            -30.3923194377      -29.3175474055       40.0101812574  TIP3      2906            0.0000000000
     31039      3099  TIP3      OH2           -24.1287616959      -32.4324863374       41.1316600086  TIP3      2907            0.0000000000
     31040      3099  TIP3      H1            -25.0827088843      -32.2757056353       41.0363751108  TIP3      2907            0.0000000000
     31041      3099  TIP3      H2            -23.8080288856      -31.6239086067       41.5938235686  TIP3      2907            0.0000000000
     31042      3100  TIP3      OH2           -23.4241669309      -30.1798777286       42.2294363857  TIP3      2908            0.0000000000
     31043      3100  TIP3      H1            -22.5545299246      -30.1522645088       42.6610451649  TIP3      2908            0.0000000000
     31044      3100  TIP3      H2            -23.3552195099      -29.4490301261       41.5815099579  TIP3      2908            0.0000000000
     31045      3101  TIP3      OH2           -25.9991852399      -23.7456227260       41.6751842803  TIP3      2909            0.0000000000
     31046      3101  TIP3      H1            -26.5203204019      -22.9284166999       41.7595414476  TIP3      2909            0.0000000000
     31047      3101  TIP3      H2            -26.6018681527      -24.4219466139       42.0093587064  TIP3      2909            0.0000000000
     31048      3102  TIP3      OH2           -18.4538807889      -30.2532140388       41.8829558514  TIP3      2910            0.0000000000
     31049      3102  TIP3      H1            -19.1548990639      -30.4483535325       41.2128287764  TIP3      2910            0.0000000000
     31050      3102  TIP3      H2            -18.1946893762      -29.3638173650       41.5553011692  TIP3      2910            0.0000000000
     31051      3103  TIP3      OH2           -34.9697987526      -27.5345451578       40.2555203040  TIP3      2911            0.0000000000
     31052      3103  TIP3      H1            -34.3975281620      -27.0909630708       40.9344799453  TIP3      2911            0.0000000000
     31053      3103  TIP3      H2            -35.2271641713      -26.7665991456       39.7056080982  TIP3      2911            0.0000000000
     31054      3104  TIP3      OH2           -22.4436616980      -23.5824188131       40.5341633181  TIP3      2912            0.0000000000
     31055      3104  TIP3      H1            -22.7365711544      -23.2154249739       41.3829613878  TIP3      2912            0.0000000000
     31056      3104  TIP3      H2            -23.2788436101      -23.9284392972       40.1714463678  TIP3      2912            0.0000000000
     31057      3105  TIP3      OH2           -18.5471560228      -19.1566551543       40.5485764182  TIP3      2913            0.0000000000
     31058      3105  TIP3      H1            -17.7730377104      -18.5815224240       40.5225869935  TIP3      2913            0.0000000000
     31059      3105  TIP3      H2            -19.1050726459      -18.6877132284       41.2009465916  TIP3      2913            0.0000000000
     31060      3106  TIP3      OH2           -28.4021943663      -22.4408101195       38.5889631808  TIP3      2914            0.0000000000
     31061      3106  TIP3      H1            -28.8046850751      -22.8893281073       37.8282738985  TIP3      2914            0.0000000000
     31062      3106  TIP3      H2            -28.8674820468      -22.8903641214       39.3072778609  TIP3      2914            0.0000000000
     31063      3107  TIP3      OH2           -30.2573003013      -23.3478779480       41.4124853080  TIP3      2915            0.0000000000
     31064      3107  TIP3      H1            -29.4699817335      -23.4130914467       41.9769797509  TIP3      2915            0.0000000000
     31065      3107  TIP3      H2            -30.3649174049      -22.3696668975       41.4424278685  TIP3      2915            0.0000000000
     31066      3108  TIP3      OH2           -33.4784233586      -25.9765963021       41.8088705257  TIP3      2916            0.0000000000
     31067      3108  TIP3      H1            -32.7371283426      -26.0511494939       42.4332595877  TIP3      2916            0.0000000000
     31068      3108  TIP3      H2            -33.1737287412      -25.2167841051       41.2782173401  TIP3      2916            0.0000000000
     31069      3109  TIP3      OH2           -27.6694498734      -21.3674701620       41.6314975541  TIP3      2917            0.0000000000
     31070      3109  TIP3      H1            -28.5838907481      -21.0853765644       41.8313765724  TIP3      2917            0.0000000000
     31071      3109  TIP3      H2            -27.3060196684      -20.5455830151       41.2400667207  TIP3      2917            0.0000000000
     31072      3110  TIP3      OH2           -30.2929467864      -20.7327263004       42.0710296379  TIP3      2918            0.0000000000
     31073      3110  TIP3      H1            -30.2194672871      -20.1027310656       41.3218526176  TIP3      2918            0.0000000000
     31074      3110  TIP3      H2            -30.4845485545      -20.1298673387       42.8039398623  TIP3      2918            0.0000000000
     31075      3111  TIP3      OH2           -31.8518401866      -33.0710207598       41.5255300679  TIP3      2919            0.0000000000
     31076      3111  TIP3      H1            -31.4586976605      -32.3012172384       41.9707103722  TIP3      2919            0.0000000000
     31077      3111  TIP3      H2            -31.0996360663      -33.7022313832       41.6879633808  TIP3      2919            0.0000000000
     31078      3112  TIP3      OH2           -32.8630610734      -23.5738927599       40.4769648172  TIP3      2920            0.0000000000
     31079      3112  TIP3      H1            -32.2009124612      -23.1493083148       41.0522014210  TIP3      2920            0.0000000000
     31080      3112  TIP3      H2            -32.2687157826      -23.9518666754       39.8018767628  TIP3      2920            0.0000000000
     31081      3113  TIP3      OH2           -34.5773075060      -30.3055705992       39.6242533794  TIP3      2921            0.0000000000
     31082      3113  TIP3      H1            -34.0136536207      -29.7510399387       40.1804275364  TIP3      2921            0.0000000000
     31083      3113  TIP3      H2            -34.9030637402      -30.9870122742       40.2510773878  TIP3      2921            0.0000000000
     31084      3114  TIP3      OH2           -26.5927281316      -20.3820221890       38.8802565001  TIP3      2922            0.0000000000
     31085      3114  TIP3      H1            -27.1471556815      -21.2025893078       38.9000645995  TIP3      2922            0.0000000000
     31086      3114  TIP3      H2            -25.7887347165      -20.7242772938       38.4303118734  TIP3      2922            0.0000000000
     31087      3115  TIP3      OH2           -22.2893907141      -21.1646873563       38.8968326951  TIP3      2923            0.0000000000
     31088      3115  TIP3      H1            -22.0469024764      -21.9492856037       39.4354467756  TIP3      2923            0.0000000000
     31089      3115  TIP3      H2            -21.5004389120      -21.0888903894       38.3187239903  TIP3      2923            0.0000000000
     31090      3116  TIP3      OH2           -31.0416450889      -25.4070900885       38.8763923616  TIP3      2924            0.0000000000
     31091      3116  TIP3      H1            -30.6337797738      -25.5171451469       39.7542986704  TIP3      2924            0.0000000000
     31092      3116  TIP3      H2            -30.2720619215      -25.6015589612       38.2962573338  TIP3      2924            0.0000000000
     31093      3117  TIP3      OH2           -25.3253110844      -23.6529851991       38.9880031545  TIP3      2925            0.0000000000
     31094      3117  TIP3      H1            -25.6663280390      -23.7352572001       39.9020383058  TIP3      2925            0.0000000000
     31095      3117  TIP3      H2            -25.4879812512      -24.5694398886       38.6555763957  TIP3      2925            0.0000000000
     31096      3118  TIP3      OH2           -29.9089713272      -26.9343486260       41.3041010724  TIP3      2926            0.0000000000
     31097      3118  TIP3      H1            -30.6988941269      -27.4592151119       41.5387128516  TIP3      2926            0.0000000000
     31098      3118  TIP3      H2            -29.6179579444      -27.4360613651       40.5139861217  TIP3      2926            0.0000000000
     31099      3119  TIP3      OH2           -28.9100609485      -28.3536380049       39.2720893271  TIP3      2927            0.0000000000
     31100      3119  TIP3      H1            -28.8355303205      -28.0081101570       38.3475308394  TIP3      2927            0.0000000000
     31101      3119  TIP3      H2            -27.9994753840      -28.7092999678       39.4018855119  TIP3      2927            0.0000000000
     31102      3120  TIP3      OH2           -19.4982253196      -26.4765691939       39.0970182758  TIP3      2928            0.0000000000
     31103      3120  TIP3      H1            -19.6254083937      -26.7971932021       38.1726194643  TIP3      2928            0.0000000000
     31104      3120  TIP3      H2            -19.5824729183      -25.4975681703       38.9657856526  TIP3      2928            0.0000000000
     31105      3121  TIP3      OH2           -28.9141005742      -18.4661905452       41.3786421002  TIP3      2929            0.0000000000
     31106      3121  TIP3      H1            -27.9474682110      -18.5350549043       41.4737145960  TIP3      2929            0.0000000000
     31107      3121  TIP3      H2            -29.0128194782      -17.8675880538       40.6193197418  TIP3      2929            0.0000000000
     31108      3122  TIP3      OH2           -35.6224383620      -23.0013043609       40.2761773520  TIP3      2930            0.0000000000
     31109      3122  TIP3      H1            -34.6563342422      -22.9773488793       40.4157863640  TIP3      2930            0.0000000000
     31110      3122  TIP3      H2            -35.7031119756      -23.8589802338       39.8286126158  TIP3      2930            0.0000000000
     31111      3123  TIP3      OH2           -17.9824466160      -27.6207795583       41.0391777679  TIP3      2931            0.0000000000
     31112      3123  TIP3      H1            -18.4549438579      -27.2819842297       40.2438780645  TIP3      2931            0.0000000000
     31113      3123  TIP3      H2            -18.1732740561      -26.9120773263       41.6765406609  TIP3      2931            0.0000000000
     31114      3124  TIP3      OH2           -20.0548077181      -30.2861616593       39.6591217729  TIP3      2932            0.0000000000
     31115      3124  TIP3      H1            -19.8098945193      -29.7557937284       38.8871309868  TIP3      2932            0.0000000000
     31116      3124  TIP3      H2            -20.2977434457      -31.1550817159       39.2449925089  TIP3      2932            0.0000000000
     31117      3125  TIP3      OH2           -20.5586770184      -32.7970876371       39.0739686883  TIP3      2933            0.0000000000
     31118      3125  TIP3      H1            -20.2112138692      -33.2341143787       39.8824338537  TIP3      2933            0.0000000000
     31119      3125  TIP3      H2            -21.5035928792      -33.0449240839       39.0626675861  TIP3      2933            0.0000000000
     31120      3126  TIP3      OH2           -18.6950984904      -33.9989612849       40.5345771518  TIP3      2934            0.0000000000
     31121      3126  TIP3      H1            -18.3078675015      -34.7166253368       39.9901173596  TIP3      2934            0.0000000000
     31122      3126  TIP3      H2            -17.9136271978      -33.4878890568       40.8388590409  TIP3      2934            0.0000000000
     31123      3127  TIP3      OH2           -34.8120459198      -36.0112313099       41.4633154511  TIP3      2935            0.0000000000
     31124      3127  TIP3      H1            -34.6381180095      -35.1676407770       41.0123071595  TIP3      2935            0.0000000000
     31125      3127  TIP3      H2            -34.8958074367      -35.7593637164       42.3945800044  TIP3      2935            0.0000000000
     31126      3128  TIP3      OH2           -33.8930397930      -33.8295541417       40.0184305547  TIP3      2936            0.0000000000
     31127      3128  TIP3      H1            -33.3292958780      -34.5206126651       39.6179527315  TIP3      2936            0.0000000000
     31128      3128  TIP3      H2            -33.2339051020      -33.3699129784       40.5839263822  TIP3      2936            0.0000000000
     31129      3129  TIP3      OH2           -26.0245019493      -19.1466187610       41.1205776579  TIP3      2937            0.0000000000
     31130      3129  TIP3      H1            -25.0816627335      -18.9291290173       41.0203242300  TIP3      2937            0.0000000000
     31131      3129  TIP3      H2            -26.2139578492      -19.4336647777       40.1910276254  TIP3      2937            0.0000000000
     31132      3130  TIP3      OH2           -34.2856258559      -19.1918201370       39.4279609728  TIP3      2938            0.0000000000
     31133      3130  TIP3      H1            -34.6320087465      -18.4584159836       39.9879685813  TIP3      2938            0.0000000000
     31134      3130  TIP3      H2            -33.4950413788      -19.4154323844       39.9368460489  TIP3      2938            0.0000000000
     31135      3131  TIP3      OH2            -7.5396982643      -28.2811425876       39.9396335074  TIP3      2939            0.0000000000
     31136      3131  TIP3      H1             -6.8608483132      -27.9931903722       40.5806483037  TIP3      2939            0.0000000000
     31137      3131  TIP3      H2             -7.0444260166      -29.0261585562       39.5397514766  TIP3      2939            0.0000000000
     31138      3132  TIP3      OH2            -5.1860632790      -27.7953238861       41.1383846167  TIP3      2940            0.0000000000
     31139      3132  TIP3      H1             -5.1292960472      -27.3748872952       42.0124073198  TIP3      2940            0.0000000000
     31140      3132  TIP3      H2             -4.6395090992      -27.2178498921       40.5459853596  TIP3      2940            0.0000000000
     31141      3133  TIP3      OH2            -1.1997503559      -36.0319888313       41.5916483932  TIP3      2941            0.0000000000
     31142      3133  TIP3      H1             -2.0544293374      -36.1315035729       42.0288024285  TIP3      2941            0.0000000000
     31143      3133  TIP3      H2             -1.1168229347      -35.0582491329       41.5066725762  TIP3      2941            0.0000000000
     31144      3134  TIP3      OH2             0.0529459317      -21.7090729566       39.5805366515  TIP3      2942            0.0000000000
     31145      3134  TIP3      H1              0.0403893293      -20.7784998887       39.8939849987  TIP3      2942            0.0000000000
     31146      3134  TIP3      H2              0.8778196912      -21.9920720272       40.0185221101  TIP3      2942            0.0000000000
     31147      3135  TIP3      OH2            -5.0844889748      -20.1234497440       41.1071478730  TIP3      2943            0.0000000000
     31148      3135  TIP3      H1             -4.8596490340      -20.1588630939       40.1623720680  TIP3      2943            0.0000000000
     31149      3135  TIP3      H2             -4.1881535002      -20.0849827232       41.4980715923  TIP3      2943            0.0000000000
     31150      3136  TIP3      OH2            -3.2634802116      -26.4043742358       39.9466679443  TIP3      2944            0.0000000000
     31151      3136  TIP3      H1             -3.5686294543      -26.2339257680       39.0312075796  TIP3      2944            0.0000000000
     31152      3136  TIP3      H2             -2.3023776454      -26.4639559669       39.7897376927  TIP3      2944            0.0000000000
     31153      3137  TIP3      OH2            -7.6325421558      -33.1246901992       39.7799300719  TIP3      2945            0.0000000000
     31154      3137  TIP3      H1             -8.1613970222      -32.5835405859       40.3689169018  TIP3      2945            0.0000000000
     31155      3137  TIP3      H2             -8.1282331139      -33.9523988304       39.7503619882  TIP3      2945            0.0000000000
     31156      3138  TIP3      OH2           -11.5165796263      -32.7107634619       39.3385295330  TIP3      2946            0.0000000000
     31157      3138  TIP3      H1            -12.0645432019      -32.9843421614       40.0999867823  TIP3      2946            0.0000000000
     31158      3138  TIP3      H2            -12.0409189518      -31.9574159883       38.9964293621  TIP3      2946            0.0000000000
     31159      3139  TIP3      OH2           -16.9102709868      -32.4783013912       41.7447572428  TIP3      2947            0.0000000000
     31160      3139  TIP3      H1            -16.2152686901      -32.2380365139       41.1087716232  TIP3      2947            0.0000000000
     31161      3139  TIP3      H2            -17.4300803985      -31.6442092359       41.7246112683  TIP3      2947            0.0000000000
     31162      3140  TIP3      OH2           -12.3357974838      -29.7369814240       40.6565884286  TIP3      2948            0.0000000000
     31163      3140  TIP3      H1            -13.1070619669      -29.8572325012       40.0837875609  TIP3      2948            0.0000000000
     31164      3140  TIP3      H2            -11.6506834303      -29.4821736324       39.9993196728  TIP3      2948            0.0000000000
     31165      3141  TIP3      OH2            -5.1312211424      -32.5835241673       41.1292784605  TIP3      2949            0.0000000000
     31166      3141  TIP3      H1             -6.0844769228      -32.4089779027       41.0775507847  TIP3      2949            0.0000000000
     31167      3141  TIP3      H2             -4.7781340616      -31.7958989520       41.6073206075  TIP3      2949            0.0000000000
     31168      3142  TIP3      OH2            -4.4570018385      -30.2411391488       42.1196657038  TIP3      2950            0.0000000000
     31169      3142  TIP3      H1             -3.7514600536      -30.1222072122       42.7776802334  TIP3      2950            0.0000000000
     31170      3142  TIP3      H2             -4.3862581826      -29.4605394745       41.5362550153  TIP3      2950            0.0000000000
     31171      3143  TIP3      OH2            -7.2129190815      -23.8795060257       41.7057557702  TIP3      2951            0.0000000000
     31172      3143  TIP3      H1             -7.7605093290      -23.0749393383       41.6770766113  TIP3      2951            0.0000000000
     31173      3143  TIP3      H2             -7.8561504065      -24.5691757571       41.9087926572  TIP3      2951            0.0000000000
     31174      3144  TIP3      OH2             0.4532523196      -30.2676651431       41.8391208228  TIP3      2952            0.0000000000
     31175      3144  TIP3      H1             -0.1954828390      -30.6755369702       41.2287856117  TIP3      2952            0.0000000000
     31176      3144  TIP3      H2              0.6385938222      -29.4448653679       41.3427490397  TIP3      2952            0.0000000000
     31177      3145  TIP3      OH2           -15.1481028902      -27.6310553975       40.1808301405  TIP3      2953            0.0000000000
     31178      3145  TIP3      H1            -14.8370981630      -26.9746193164       40.8322715400  TIP3      2953            0.0000000000
     31179      3145  TIP3      H2            -16.0649142392      -27.7532238212       40.5016126029  TIP3      2953            0.0000000000
     31180      3146  TIP3      OH2            -3.5819531971      -23.3688339190       40.6029192275  TIP3      2954            0.0000000000
     31181      3146  TIP3      H1             -3.7979797564      -23.0923760036       41.5033540882  TIP3      2954            0.0000000000
     31182      3146  TIP3      H2             -4.4434485596      -23.7025107351       40.3049517703  TIP3      2954            0.0000000000
     31183      3147  TIP3      OH2             0.2524928604      -19.1534500926       40.4886153974  TIP3      2955            0.0000000000
     31184      3147  TIP3      H1              0.8747269634      -18.4174000148       40.5521327690  TIP3      2955            0.0000000000
     31185      3147  TIP3      H2             -0.5148637941      -18.7107259725       40.9027211349  TIP3      2955            0.0000000000
     31186      3148  TIP3      OH2            -9.9025138998      -22.4760854834       38.7519827718  TIP3      2956            0.0000000000
     31187      3148  TIP3      H1            -10.2946210846      -22.9428108610       37.9948798925  TIP3      2956            0.0000000000
     31188      3148  TIP3      H2            -10.3036172244      -22.9719365492       39.4975046076  TIP3      2956            0.0000000000
     31189      3149  TIP3      OH2           -11.1297894296      -23.1289223148       41.2636722240  TIP3      2957            0.0000000000
     31190      3149  TIP3      H1            -10.6649027810      -23.5029705505       42.0275612251  TIP3      2957            0.0000000000
     31191      3149  TIP3      H2            -11.3099980921      -22.2172325796       41.5729269357  TIP3      2957            0.0000000000
     31192      3150  TIP3      OH2           -14.6572071716      -25.6229126728       41.8106732567  TIP3      2958            0.0000000000
     31193      3150  TIP3      H1            -14.8098322025      -26.2688735537       42.5186888467  TIP3      2958            0.0000000000
     31194      3150  TIP3      H2            -13.7178763876      -25.3922795025       41.9532669224  TIP3      2958            0.0000000000
     31195      3151  TIP3      OH2            -8.6783831020      -21.4729404785       41.6775110940  TIP3      2959            0.0000000000
     31196      3151  TIP3      H1             -9.5449646805      -21.1014288337       41.9422015098  TIP3      2959            0.0000000000
     31197      3151  TIP3      H2             -8.3618692837      -20.7760356726       41.0781925334  TIP3      2959            0.0000000000
     31198      3152  TIP3      OH2           -11.3356144132      -20.6765082161       42.3965175993  TIP3      2960            0.0000000000
     31199      3152  TIP3      H1            -11.3233152091      -19.9461950052       41.7430260062  TIP3      2960            0.0000000000
     31200      3152  TIP3      H2            -11.1178737624      -20.1734485302       43.1939978527  TIP3      2960            0.0000000000
     31201      3153  TIP3      OH2           -12.8188165404      -33.7761202161       41.4169886134  TIP3      2961            0.0000000000
     31202      3153  TIP3      H1            -12.7700876335      -33.0056883481       42.0026167675  TIP3      2961            0.0000000000
     31203      3153  TIP3      H2            -11.8905624300      -34.0601205131       41.4697543563  TIP3      2961            0.0000000000
     31204      3154  TIP3      OH2           -14.1477637233      -23.0147946246       40.4712970332  TIP3      2962            0.0000000000
     31205      3154  TIP3      H1            -13.5223105515      -22.7051330228       41.1360980377  TIP3      2962            0.0000000000
     31206      3154  TIP3      H2            -13.5756811062      -23.6484065770       40.0152350484  TIP3      2962            0.0000000000
     31207      3155  TIP3      OH2           -15.6726053002      -30.4174667902       40.2324284222  TIP3      2963            0.0000000000
     31208      3155  TIP3      H1            -15.3168807541      -29.5409196452       39.9853683304  TIP3      2963            0.0000000000
     31209      3155  TIP3      H2            -16.4418906385      -30.4825292936       39.6563615361  TIP3      2963            0.0000000000
     31210      3156  TIP3      OH2            -8.0439995157      -20.4417385279       38.7769955057  TIP3      2964            0.0000000000
     31211      3156  TIP3      H1             -8.6023416448      -21.2476704530       38.8332056554  TIP3      2964            0.0000000000
     31212      3156  TIP3      H2             -7.2234338254      -20.8295056880       38.4096613332  TIP3      2964            0.0000000000
     31213      3157  TIP3      OH2            -3.4228368111      -21.1749294311       38.7908688038  TIP3      2965            0.0000000000
     31214      3157  TIP3      H1             -3.2372085376      -21.7790535599       39.5306024539  TIP3      2965            0.0000000000
     31215      3157  TIP3      H2             -2.5428633244      -21.0591160445       38.3741345914  TIP3      2965            0.0000000000
     31216      3158  TIP3      OH2           -12.3172179002      -25.2120119167       38.8298881169  TIP3      2966            0.0000000000
     31217      3158  TIP3      H1            -11.9800806239      -25.6570818635       39.6135407317  TIP3      2966            0.0000000000
     31218      3158  TIP3      H2            -11.5407666153      -25.2756620125       38.2164400750  TIP3      2966            0.0000000000
     31219      3159  TIP3      OH2            -6.4761540917      -23.7554485286       39.0505050558  TIP3      2967            0.0000000000
     31220      3159  TIP3      H1             -6.7312837936      -23.8903297764       39.9850412299  TIP3      2967            0.0000000000
     31221      3159  TIP3      H2             -6.6446210067      -24.6469088280       38.6603633796  TIP3      2967            0.0000000000
     31222      3160  TIP3      OH2           -11.2221492063      -26.8972778282       41.0696464140  TIP3      2968            0.0000000000
     31223      3160  TIP3      H1            -11.8718634452      -27.4844159769       41.4850043413  TIP3      2968            0.0000000000
     31224      3160  TIP3      H2            -10.8646907641      -27.4784886869       40.3609553738  TIP3      2968            0.0000000000
     31225      3161  TIP3      OH2           -10.0871344709      -28.5469368368       39.2636001347  TIP3      2969            0.0000000000
     31226      3161  TIP3      H1            -10.1203621036      -28.2461620544       38.3226230168  TIP3      2969            0.0000000000
     31227      3161  TIP3      H2             -9.1139148411      -28.5482056794       39.4213388334  TIP3      2969            0.0000000000
     31228      3162  TIP3      OH2            -0.6798066058      -26.5152242350       38.8943484024  TIP3      2970            0.0000000000
     31229      3162  TIP3      H1             -0.8713029348      -26.8174853259       37.9687500026  TIP3      2970            0.0000000000
     31230      3162  TIP3      H2             -0.8137458500      -25.5392926542       38.7793395624  TIP3      2970            0.0000000000
     31231      3163  TIP3      OH2           -10.1107289010      -18.4682658563       41.4378586722  TIP3      2971            0.0000000000
     31232      3163  TIP3      H1             -9.1246946119      -18.5265420905       41.3335612949  TIP3      2971            0.0000000000
     31233      3163  TIP3      H2            -10.3232949841      -17.8467425765       40.7195440934  TIP3      2971            0.0000000000
     31234      3164  TIP3      OH2           -16.9445850173      -23.4768010116       40.3725415910  TIP3      2972            0.0000000000
     31235      3164  TIP3      H1            -15.9613066848      -23.4390862918       40.4088389564  TIP3      2972            0.0000000000
     31236      3164  TIP3      H2            -17.0579308802      -24.1078478909       39.6389872407  TIP3      2972            0.0000000000
     31237      3165  TIP3      OH2             0.8116406682      -27.6163863101       40.8549279164  TIP3      2973            0.0000000000
     31238      3165  TIP3      H1              0.2383032747      -27.3118111575       40.1182663986  TIP3      2973            0.0000000000
     31239      3165  TIP3      H2              0.3148014322      -27.2858132826       41.6216888443  TIP3      2973            0.0000000000
     31240      3166  TIP3      OH2            -0.9816841484      -30.4005302369       39.3376773652  TIP3      2974            0.0000000000
     31241      3166  TIP3      H1             -0.9604123092      -29.7767598141       38.5991805653  TIP3      2974            0.0000000000
     31242      3166  TIP3      H2             -1.3956636215      -31.1718027209       38.8924912909  TIP3      2974            0.0000000000
     31243      3167  TIP3      OH2            -1.4250236282      -32.8620556514       38.3639869622  TIP3      2975            0.0000000000
     31244      3167  TIP3      H1             -1.1659525085      -33.1389780434       39.2677628221  TIP3      2975            0.0000000000
     31245      3167  TIP3      H2             -2.4122495637      -32.9494416647       38.3437482525  TIP3      2975            0.0000000000
     31246      3168  TIP3      OH2             0.1319318190      -33.9722134124       40.4434765175  TIP3      2976            0.0000000000
     31247      3168  TIP3      H1              0.4923025192      -34.7828915420       40.0246597169  TIP3      2976            0.0000000000
     31248      3168  TIP3      H2              0.9155731324      -33.5088872115       40.8185658698  TIP3      2976            0.0000000000
     31249      3169  TIP3      OH2           -16.0816297560      -35.8845782977       41.3951334535  TIP3      2977            0.0000000000
     31250      3169  TIP3      H1            -16.1074064747      -35.1897574265       40.7153474620  TIP3      2977            0.0000000000
     31251      3169  TIP3      H2            -16.7978907551      -35.6207536014       41.9893299860  TIP3      2977            0.0000000000
     31252      3170  TIP3      OH2           -14.9069391895      -33.9149113084       39.7887679384  TIP3      2978            0.0000000000
     31253      3170  TIP3      H1            -14.4203701831      -34.6073118367       39.2983904829  TIP3      2978            0.0000000000
     31254      3170  TIP3      H2            -14.3155361192      -33.8010100491       40.5588639602  TIP3      2978            0.0000000000
     31255      3171  TIP3      OH2            -7.5182360429      -18.8482396502       40.8503617530  TIP3      2979            0.0000000000
     31256      3171  TIP3      H1             -6.5493677885      -18.7548179871       40.8887035618  TIP3      2979            0.0000000000
     31257      3171  TIP3      H2             -7.5924962795      -19.2549819583       39.9577394545  TIP3      2979            0.0000000000
     31258      3172  TIP3      OH2           -15.1666220226      -19.0723165423       39.3125182546  TIP3      2980            0.0000000000
     31259      3172  TIP3      H1            -15.4406999124      -18.5981915738       40.1233569172  TIP3      2980            0.0000000000
     31260      3172  TIP3      H2            -14.5258449151      -19.7275378215       39.6328303947  TIP3      2980            0.0000000000
     31261      3173  TIP3      OH2            11.3228399520      -28.2927919216       40.0326840626  TIP3      2981            0.0000000000
     31262      3173  TIP3      H1             12.0483545629      -28.0130527896       40.6221565360  TIP3      2981            0.0000000000
     31263      3173  TIP3      H2             11.7757163073      -29.0724594321       39.6532317018  TIP3      2981            0.0000000000
     31264      3174  TIP3      OH2            13.7319960679      -27.8261846303       41.2057235679  TIP3      2982            0.0000000000
     31265      3174  TIP3      H1             13.6143712836      -27.3552019643       42.0422488274  TIP3      2982            0.0000000000
     31266      3174  TIP3      H2             14.2228747844      -27.1892781370       40.6295916114  TIP3      2982            0.0000000000
     31267      3175  TIP3      OH2            17.4363196262      -35.9508124176       41.4515905504  TIP3      2983            0.0000000000
     31268      3175  TIP3      H1             16.7119929119      -36.3272533975       41.9690566950  TIP3      2983            0.0000000000
     31269      3175  TIP3      H2             17.3376889816      -34.9927317325       41.5322101857  TIP3      2983            0.0000000000
     31270      3176  TIP3      OH2            18.7442204808      -21.8222849130       39.8326280185  TIP3      2984            0.0000000000
     31271      3176  TIP3      H1             18.9238443359      -20.8707965692       39.9372379835  TIP3      2984            0.0000000000
     31272      3176  TIP3      H2             19.5715242250      -22.1950559517       40.2063524114  TIP3      2984            0.0000000000
     31273      3177  TIP3      OH2            14.4947148164      -19.4399730740       40.7257362028  TIP3      2985            0.0000000000
     31274      3177  TIP3      H1             14.7769671521      -20.0499537576       40.0063156907  TIP3      2985            0.0000000000
     31275      3177  TIP3      H2             14.9705382799      -19.8631696041       41.4740761387  TIP3      2985            0.0000000000
     31276      3178  TIP3      OH2            15.4416608612      -26.2503819092       39.9467074046  TIP3      2986            0.0000000000
     31277      3178  TIP3      H1             15.2224704395      -26.2100529373       38.9895546444  TIP3      2986            0.0000000000
     31278      3178  TIP3      H2             16.4125907564      -26.3357927799       39.8813258085  TIP3      2986            0.0000000000
     31279      3179  TIP3      OH2            11.4024372847      -33.2084363585       39.9766249378  TIP3      2987            0.0000000000
     31280      3179  TIP3      H1             11.0390394888      -32.6972732167       40.7103444117  TIP3      2987            0.0000000000
     31281      3179  TIP3      H2             10.7699049981      -33.9331601443       39.8802335132  TIP3      2987            0.0000000000
     31282      3180  TIP3      OH2             7.4662341004      -32.2579218144       39.2565143475  TIP3      2988            0.0000000000
     31283      3180  TIP3      H1              7.2280239075      -31.8775867333       40.1244664267  TIP3      2988            0.0000000000
     31284      3180  TIP3      H2              6.9106384594      -31.6780928889       38.6968225760  TIP3      2988            0.0000000000
     31285      3181  TIP3      OH2             2.1387897476      -32.5540086130       41.4202069011  TIP3      2989            0.0000000000
     31286      3181  TIP3      H1              2.7909950361      -32.1358349560       40.8218290867  TIP3      2989            0.0000000000
     31287      3181  TIP3      H2              1.6629112411      -31.7621762707       41.7174384887  TIP3      2989            0.0000000000
     31288      3182  TIP3      OH2             6.3202437244      -29.9737764993       40.5902747535  TIP3      2990            0.0000000000
     31289      3182  TIP3      H1              5.5095553003      -29.9383451766       40.0583875485  TIP3      2990            0.0000000000
     31290      3182  TIP3      H2              6.8992017464      -29.4125346052       40.0548883001  TIP3      2990            0.0000000000
     31291      3183  TIP3      OH2            13.8072675669      -32.6648599498       41.2000698314  TIP3      2991            0.0000000000
     31292      3183  TIP3      H1             12.8766960458      -32.5471209545       40.9524492866  TIP3      2991            0.0000000000
     31293      3183  TIP3      H2             14.0544738126      -31.7886571256       41.5854754267  TIP3      2991            0.0000000000
     31294      3184  TIP3      OH2            14.2804218741      -30.2351333788       42.1189842520  TIP3      2992            0.0000000000
     31295      3184  TIP3      H1             15.1746013484      -29.9842810358       42.3920780154  TIP3      2992            0.0000000000
     31296      3184  TIP3      H2             14.0024113633      -29.4668076377       41.5641897292  TIP3      2992            0.0000000000
     31297      3185  TIP3      OH2            11.8945218232      -23.9701887507       41.7050307217  TIP3      2993            0.0000000000
     31298      3185  TIP3      H1             11.4108820312      -23.1297501240       41.6104395342  TIP3      2993            0.0000000000
     31299      3185  TIP3      H2             11.1863084135      -24.5318451057       42.0427976543  TIP3      2993            0.0000000000
     31300      3186  TIP3      OH2            19.2403914376      -30.2423858518       41.7478343915  TIP3      2994            0.0000000000
     31301      3186  TIP3      H1             18.6549844653      -30.5815770706       41.0296038770  TIP3      2994            0.0000000000
     31302      3186  TIP3      H2             19.3371123683      -29.3207190507       41.4198743141  TIP3      2994            0.0000000000
     31303      3187  TIP3      OH2             3.3869960938      -27.6266763359       39.9890094952  TIP3      2995            0.0000000000
     31304      3187  TIP3      H1              3.7588553738      -27.0839767451       40.7062627634  TIP3      2995            0.0000000000
     31305      3187  TIP3      H2              2.4404356662      -27.6217439786       40.2608750319  TIP3      2995            0.0000000000
     31306      3188  TIP3      OH2            15.4187685759      -23.4191146375       40.5758322672  TIP3      2996            0.0000000000
     31307      3188  TIP3      H1             15.2191093042      -23.1109637191       41.4745814051  TIP3      2996            0.0000000000
     31308      3188  TIP3      H2             14.5783141406      -23.8511995466       40.3496242526  TIP3      2996            0.0000000000
     31309      3189  TIP3      OH2            19.1570387998      -19.2737964820       40.5608347114  TIP3      2997            0.0000000000
     31310      3189  TIP3      H1             19.8876484644      -18.6696991182       40.7546571012  TIP3      2997            0.0000000000
     31311      3189  TIP3      H2             18.4183858497      -18.7966879554       40.9769749664  TIP3      2997            0.0000000000
     31312      3190  TIP3      OH2             9.1727534803      -22.6571773407       39.0951335602  TIP3      2998            0.0000000000
     31313      3190  TIP3      H1              9.8037849399      -23.3661734225       38.9003145915  TIP3      2998            0.0000000000
     31314      3190  TIP3      H2              8.8537503163      -22.9473229546       39.9805292078  TIP3      2998            0.0000000000
     31315      3191  TIP3      OH2             7.8590314634      -23.2178454547       41.3388979560  TIP3      2999            0.0000000000
     31316      3191  TIP3      H1              8.1458773715      -23.5337118660       42.2082777932  TIP3      2999            0.0000000000
     31317      3191  TIP3      H2              7.6660291741      -22.2774095296       41.5726241571  TIP3      2999            0.0000000000
     31318      3192  TIP3      OH2             4.1833158918      -25.5748764207       41.5801111756  TIP3      3000            0.0000000000
     31319      3192  TIP3      H1              3.7986524880      -26.1309016465       42.3025875550  TIP3      3000            0.0000000000
     31320      3192  TIP3      H2              5.1124827336      -25.5368367903       41.8787244627  TIP3      3000            0.0000000000
     31321      3193  TIP3      OH2            10.1167934000      -21.4021782595       41.6628032946  TIP3      3001            0.0000000000
     31322      3193  TIP3      H1              9.2743283465      -20.9140663698       41.6176214535  TIP3      3001            0.0000000000
     31323      3193  TIP3      H2             10.6457433470      -20.9213609447       40.9934823877  TIP3      3001            0.0000000000
     31324      3194  TIP3      OH2             7.4034711882      -20.7290003806       42.3163302347  TIP3      3002            0.0000000000
     31325      3194  TIP3      H1              7.1516166921      -19.9061289437       41.8590601896  TIP3      3002            0.0000000000
     31326      3194  TIP3      H2              7.7704797141      -20.3908110223       43.1482498248  TIP3      3002            0.0000000000
     31327      3195  TIP3      OH2             5.9886945653      -34.0336881998       41.7080316883  TIP3      3003            0.0000000000
     31328      3195  TIP3      H1              5.1308487566      -33.6352649690       41.9360527310  TIP3      3003            0.0000000000
     31329      3195  TIP3      H2              6.6065757389      -33.3982017280       42.1283054173  TIP3      3003            0.0000000000
     31330      3196  TIP3      OH2             4.9300791848      -22.9857329231       40.1237990850  TIP3      3004            0.0000000000
     31331      3196  TIP3      H1              5.4400336362      -22.6408339797       40.8757677699  TIP3      3004            0.0000000000
     31332      3196  TIP3      H2              4.9978343198      -23.9362263420       40.3006420700  TIP3      3004            0.0000000000
     31333      3197  TIP3      OH2             3.0896736329      -30.4517967161       40.0063685902  TIP3      3005            0.0000000000
     31334      3197  TIP3      H1              3.3456405620      -29.5143434631       40.0169869495  TIP3      3005            0.0000000000
     31335      3197  TIP3      H2              2.2105126536      -30.4436651088       39.6127746500  TIP3      3005            0.0000000000
     31336      3198  TIP3      OH2            11.0133448962      -20.4875865868       39.1765708950  TIP3      3006            0.0000000000
     31337      3198  TIP3      H1             10.4328275871      -21.1945127496       38.8211531864  TIP3      3006            0.0000000000
     31338      3198  TIP3      H2             11.6844527661      -20.4599279848       38.4632302825  TIP3      3006            0.0000000000
     31339      3199  TIP3      OH2            15.4034758717      -21.2131022254       38.8372888766  TIP3      3007            0.0000000000
     31340      3199  TIP3      H1             15.5667245242      -21.9773259183       39.4403744704  TIP3      3007            0.0000000000
     31341      3199  TIP3      H2             16.2610720716      -21.1429755116       38.3683979155  TIP3      3007            0.0000000000
     31342      3200  TIP3      OH2             6.5092343335      -25.5565869093       39.4051335518  TIP3      3008            0.0000000000
     31343      3200  TIP3      H1              6.8839809168      -25.8852280768       40.2518900234  TIP3      3008            0.0000000000
     31344      3200  TIP3      H2              7.2310112348      -25.7667419257       38.7827883393  TIP3      3008            0.0000000000
     31345      3201  TIP3      OH2            12.2947316003      -23.7653085958       38.9832766701  TIP3      3009            0.0000000000
     31346      3201  TIP3      H1             12.3558797802      -23.9972348991       39.9317527227  TIP3      3009            0.0000000000
     31347      3201  TIP3      H2             12.2764861492      -24.6581282056       38.5522319320  TIP3      3009            0.0000000000
     31348      3202  TIP3      OH2             7.7903635604      -26.9797396988       41.3073040167  TIP3      3010            0.0000000000
     31349      3202  TIP3      H1              7.6891689232      -27.5974311486       42.0537467750  TIP3      3010            0.0000000000
     31350      3202  TIP3      H2              8.1556597901      -27.5798537481       40.6078408005  TIP3      3010            0.0000000000
     31351      3203  TIP3      OH2             8.7594162555      -28.5817136470       39.4591640471  TIP3      3011            0.0000000000
     31352      3203  TIP3      H1              8.6964342806      -28.4851890237       38.4861150238  TIP3      3011            0.0000000000
     31353      3203  TIP3      H2              9.7317880629      -28.6537589818       39.5801165890  TIP3      3011            0.0000000000
     31354      3204  TIP3      OH2            18.1402338106      -26.5269704487       39.1369870369  TIP3      3012            0.0000000000
     31355      3204  TIP3      H1             18.0128560868      -26.8322921196       38.2086203872  TIP3      3012            0.0000000000
     31356      3204  TIP3      H2             18.1708836906      -25.5416811534       38.9961599904  TIP3      3012            0.0000000000
     31357      3205  TIP3      OH2             8.8098046700      -18.3812074009       41.3709667469  TIP3      3013            0.0000000000
     31358      3205  TIP3      H1              9.7777744585      -18.2483334417       41.3977149491  TIP3      3013            0.0000000000
     31359      3205  TIP3      H2              8.5842313655      -17.8017661408       40.6154162173  TIP3      3013            0.0000000000
     31360      3206  TIP3      OH2             1.9407675620      -23.4116321925       40.3448337533  TIP3      3014            0.0000000000
     31361      3206  TIP3      H1              2.9013388040      -23.5465464219       40.2737309450  TIP3      3014            0.0000000000
     31362      3206  TIP3      H2              1.6107300834      -23.8084797535       39.5198011876  TIP3      3014            0.0000000000
     31363      3207  TIP3      OH2            19.7262141819      -27.6476165819       40.9860640473  TIP3      3015            0.0000000000
     31364      3207  TIP3      H1             19.2682044473      -27.3740614020       40.1587821351  TIP3      3015            0.0000000000
     31365      3207  TIP3      H2             19.4173176855      -26.9601794668       41.6028054497  TIP3      3015            0.0000000000
     31366      3208  TIP3      OH2            17.6900708788      -30.3959161543       39.4777192411  TIP3      3016            0.0000000000
     31367      3208  TIP3      H1             17.9119067425      -29.8714126600       38.6814351154  TIP3      3016            0.0000000000
     31368      3208  TIP3      H2             17.3658170416      -31.2270914707       39.0743861901  TIP3      3016            0.0000000000
     31369      3209  TIP3      OH2            17.2276093091      -33.0004134473       38.7040739116  TIP3      3017            0.0000000000
     31370      3209  TIP3      H1             17.7718387313      -33.2339821305       39.4927780696  TIP3      3017            0.0000000000
     31371      3209  TIP3      H2             16.3078960683      -33.0579382679       39.0331808627  TIP3      3017            0.0000000000
     31372      3210  TIP3      OH2            19.1211517034      -33.8957589444       40.4421307481  TIP3      3018            0.0000000000
     31373      3210  TIP3      H1             19.3039467373      -34.8020903899       40.1374643499  TIP3      3018            0.0000000000
     31374      3210  TIP3      H2             19.9219491082      -33.5874562648       40.9161955027  TIP3      3018            0.0000000000
     31375      3211  TIP3      OH2             2.9795620359      -35.6610105181       41.2024823215  TIP3      3019            0.0000000000
     31376      3211  TIP3      H1              2.1961402053      -35.6604943928       40.6285167819  TIP3      3019            0.0000000000
     31377      3211  TIP3      H2              2.6460550161      -35.9510254962       42.0598450752  TIP3      3019            0.0000000000
     31378      3212  TIP3      OH2             4.0153943982      -33.7656560981       39.6842316003  TIP3      3020            0.0000000000
     31379      3212  TIP3      H1              3.8667478759      -34.6226407988       39.2554281207  TIP3      3020            0.0000000000
     31380      3212  TIP3      H2              3.5915236228      -33.9884749892       40.5456376616  TIP3      3020            0.0000000000
     31381      3213  TIP3      OH2            11.7574419227      -18.7529542130       41.1387940805  TIP3      3021            0.0000000000
     31382      3213  TIP3      H1             12.7296973052      -18.7802588712       41.1384077523  TIP3      3021            0.0000000000
     31383      3213  TIP3      H2             11.5672808496      -19.1795063052       40.2683921021  TIP3      3021            0.0000000000
     31384      3214  TIP3      OH2             4.1043734396      -19.0157241087       39.4261031954  TIP3      3022            0.0000000000
     31385      3214  TIP3      H1              3.6205022494      -18.7656633154       40.2367283286  TIP3      3022            0.0000000000
     31386      3214  TIP3      H2              4.6893996621      -19.7270067716       39.7270493117  TIP3      3022            0.0000000000
     31387      3215  TIP3      OH2            30.1183777472      -28.2610496581       40.1449744774  TIP3      3023            0.0000000000
     31388      3215  TIP3      H1             30.7909930383      -27.8742434696       40.7431267100  TIP3      3023            0.0000000000
     31389      3215  TIP3      H2             30.6791967970      -28.9501546142       39.7375102675  TIP3      3023            0.0000000000
     31390      3216  TIP3      OH2            32.5302636544      -27.6328500315       41.2700246606  TIP3      3024            0.0000000000
     31391      3216  TIP3      H1             33.0421989047      -27.4102526010       42.0725979665  TIP3      3024            0.0000000000
     31392      3216  TIP3      H2             33.1660279789      -27.5941531727       40.5302617338  TIP3      3024            0.0000000000
     31393      3217  TIP3      OH2            35.8166374310      -35.5042743033       41.0271350224  TIP3      3025            0.0000000000
     31394      3217  TIP3      H1             35.6230202289      -35.9726103505       41.8595599412  TIP3      3025            0.0000000000
     31395      3217  TIP3      H2             36.4504810553      -34.8210482280       41.2882307110  TIP3      3025            0.0000000000
     31396      3218  TIP3      OH2            33.3131369943      -19.3705432765       40.6789785152  TIP3      3026            0.0000000000
     31397      3218  TIP3      H1             33.4641480241      -19.9972680002       39.9327716627  TIP3      3026            0.0000000000
     31398      3218  TIP3      H2             33.8082810652      -19.8502266579       41.3804901557  TIP3      3026            0.0000000000
     31399      3219  TIP3      OH2            34.6603446874      -27.1115480881       39.6606092948  TIP3      3027            0.0000000000
     31400      3219  TIP3      H1             34.2968967205      -26.9913332426       38.7472937421  TIP3      3027            0.0000000000
     31401      3219  TIP3      H2             34.8474075292      -26.1850852404       39.8660965152  TIP3      3027            0.0000000000
     31402      3220  TIP3      OH2            30.0067308854      -33.3984768437       39.8056002659  TIP3      3028            0.0000000000
     31403      3220  TIP3      H1             29.2532498362      -33.0080983349       40.2650238227  TIP3      3028            0.0000000000
     31404      3220  TIP3      H2             29.6506562832      -34.2586584426       39.5400295726  TIP3      3028            0.0000000000
     31405      3221  TIP3      OH2            26.1799958901      -32.7068652811       39.2945740281  TIP3      3029            0.0000000000
     31406      3221  TIP3      H1             25.6202611238      -32.9658546810       40.0604670496  TIP3      3029            0.0000000000
     31407      3221  TIP3      H2             25.6748347833      -31.9762094970       38.8783019157  TIP3      3029            0.0000000000
     31408      3222  TIP3      OH2            20.8478731678      -32.4849006408       41.8830280806  TIP3      3030            0.0000000000
     31409      3222  TIP3      H1             21.4953865828      -32.3069430455       41.1760440836  TIP3      3030            0.0000000000
     31410      3222  TIP3      H2             20.3132634496      -31.6643393433       41.8114107338  TIP3      3030            0.0000000000
     31411      3223  TIP3      OH2            25.3990797287      -29.8860831681       40.4495786297  TIP3      3031            0.0000000000
     31412      3223  TIP3      H1             24.9583257758      -30.3908355868       39.7419763571  TIP3      3031            0.0000000000
     31413      3223  TIP3      H2             26.1146265371      -29.5128689673       39.8970210753  TIP3      3031            0.0000000000
     31414      3224  TIP3      OH2            32.2607233709      -32.6183388604       41.1417145004  TIP3      3032            0.0000000000
     31415      3224  TIP3      H1             31.3441944883      -32.6828124356       40.8016063416  TIP3      3032            0.0000000000
     31416      3224  TIP3      H2             32.2835328395      -31.7485350537       41.5949647594  TIP3      3032            0.0000000000
     31417      3225  TIP3      OH2            33.1459304008      -30.2076660794       41.9645316826  TIP3      3033            0.0000000000
     31418      3225  TIP3      H1             34.0176853868      -30.3505771759       41.5498069298  TIP3      3033            0.0000000000
     31419      3225  TIP3      H2             32.6978679159      -29.6950590921       41.2650250799  TIP3      3033            0.0000000000
     31420      3226  TIP3      OH2            30.4556348586      -23.9625266633       41.5547098745  TIP3      3034            0.0000000000
     31421      3226  TIP3      H1             29.9272505754      -23.1509627338       41.4326594185  TIP3      3034            0.0000000000
     31422      3226  TIP3      H2             29.8337939355      -24.5586244967       41.9837976909  TIP3      3034            0.0000000000
     31423      3227  TIP3      OH2            22.4179378578      -27.7010559485       40.1183919434  TIP3      3035            0.0000000000
     31424      3227  TIP3      H1             22.7855452203      -27.0257249688       40.7349531436  TIP3      3035            0.0000000000
     31425      3227  TIP3      H2             21.5482864775      -27.8497079090       40.5333273551  TIP3      3035            0.0000000000
     31426      3228  TIP3      OH2            33.9658749360      -23.5733442441       40.5615367745  TIP3      3036            0.0000000000
     31427      3228  TIP3      H1             33.7862500643      -23.2735874332       41.4630488291  TIP3      3036            0.0000000000
     31428      3228  TIP3      H2             33.0632906611      -23.6689739440       40.2067037758  TIP3      3036            0.0000000000
     31429      3229  TIP3      OH2            28.0023078992      -22.2469234434       38.7345855531  TIP3      3037            0.0000000000
     31430      3229  TIP3      H1             27.7559253753      -22.8146976463       37.9887229510  TIP3      3037            0.0000000000
     31431      3229  TIP3      H2             27.4679353570      -22.6367319951       39.4597405144  TIP3      3037            0.0000000000
     31432      3230  TIP3      OH2            26.5907089593      -23.1531759585       41.1114809457  TIP3      3038            0.0000000000
     31433      3230  TIP3      H1             27.0696970368      -23.7234156334       41.7361480187  TIP3      3038            0.0000000000
     31434      3230  TIP3      H2             26.4142935765      -22.3624003070       41.6581544705  TIP3      3038            0.0000000000
     31435      3231  TIP3      OH2            23.0963862023      -25.6514613395       41.5740222261  TIP3      3039            0.0000000000
     31436      3231  TIP3      H1             22.8570347283      -25.5493814543       42.4961690788  TIP3      3039            0.0000000000
     31437      3231  TIP3      H2             24.0023736147      -25.3105845483       41.5481749663  TIP3      3039            0.0000000000
     31438      3232  TIP3      OH2            28.9542877832      -21.5003196477       41.5340914196  TIP3      3040            0.0000000000
     31439      3232  TIP3      H1             28.0533574489      -21.1774108683       41.7206999859  TIP3      3040            0.0000000000
     31440      3232  TIP3      H2             29.2340097134      -20.9130481650       40.8104444976  TIP3      3040            0.0000000000
     31441      3233  TIP3      OH2            26.2174279586      -20.7317379658       42.3646191158  TIP3      3041            0.0000000000
     31442      3233  TIP3      H1             26.1895998372      -19.9750773464       41.7405707725  TIP3      3041            0.0000000000
     31443      3233  TIP3      H2             26.6070069836      -20.2979816797       43.1359412247  TIP3      3041            0.0000000000
     31444      3234  TIP3      OH2            25.2034574758      -34.0461462567       41.4112304307  TIP3      3042            0.0000000000
     31445      3234  TIP3      H1             25.4578701760      -33.3640150042       42.0772956617  TIP3      3042            0.0000000000
     31446      3234  TIP3      H2             26.0908019541      -34.4029741659       41.2279554648  TIP3      3042            0.0000000000
     31447      3235  TIP3      OH2            23.5494114691      -23.0085103746       40.4536444079  TIP3      3043            0.0000000000
     31448      3235  TIP3      H1             24.2188035232      -22.5846850012       41.0079087258  TIP3      3043            0.0000000000
     31449      3235  TIP3      H2             24.1167080013      -23.6426023927       39.9849988295  TIP3      3043            0.0000000000
     31450      3236  TIP3      OH2            21.9815019163      -30.5375856508       40.0775479465  TIP3      3044            0.0000000000
     31451      3236  TIP3      H1             22.4893236673      -29.7039562806       40.0522684922  TIP3      3044            0.0000000000
     31452      3236  TIP3      H2             21.1879910388      -30.3005716130       39.5861460767  TIP3      3044            0.0000000000
     31453      3237  TIP3      OH2            30.0439772283      -20.3081354371       38.9321365551  TIP3      3045            0.0000000000
     31454      3237  TIP3      H1             29.3797906987      -21.0216336236       38.7740395250  TIP3      3045            0.0000000000
     31455      3237  TIP3      H2             30.8224075113      -20.7301455135       38.5001776507  TIP3      3045            0.0000000000
     31456      3238  TIP3      OH2            34.2487238379      -21.1660222662       38.9914806937  TIP3      3046            0.0000000000
     31457      3238  TIP3      H1             34.5335397707      -21.8531295314       39.6189497819  TIP3      3046            0.0000000000
     31458      3238  TIP3      H2             35.0371077312      -21.0710473684       38.4098884226  TIP3      3046            0.0000000000
     31459      3239  TIP3      OH2            25.3521740410      -25.3294711895       38.7224355267  TIP3      3047            0.0000000000
     31460      3239  TIP3      H1             25.8234232416      -25.6339497610       39.5064694372  TIP3      3047            0.0000000000
     31461      3239  TIP3      H2             26.1043721750      -25.3406699666       38.0789399309  TIP3      3047            0.0000000000
     31462      3240  TIP3      OH2            31.2745310317      -23.8379230164       38.9927260406  TIP3      3048            0.0000000000
     31463      3240  TIP3      H1             31.0600485427      -24.0965925924       39.9184408425  TIP3      3048            0.0000000000
     31464      3240  TIP3      H2             31.1155428653      -24.7031891051       38.5254472500  TIP3      3048            0.0000000000
     31465      3241  TIP3      OH2            26.5665285646      -26.9754433368       40.9911757332  TIP3      3049            0.0000000000
     31466      3241  TIP3      H1             26.0276066907      -27.6189029706       41.4720679416  TIP3      3049            0.0000000000
     31467      3241  TIP3      H2             27.0585639709      -27.5556460952       40.3672795524  TIP3      3049            0.0000000000
     31468      3242  TIP3      OH2            27.6638127916      -28.7701669249       39.2715782939  TIP3      3050            0.0000000000
     31469      3242  TIP3      H1             27.6248704599      -28.5454126288       38.3165739740  TIP3      3050            0.0000000000
     31470      3242  TIP3      H2             28.6288721804      -28.6644206492       39.4454281929  TIP3      3050            0.0000000000
     31471      3243  TIP3      OH2            27.5364814715      -18.4778871066       41.5278367154  TIP3      3051            0.0000000000
     31472      3243  TIP3      H1             28.5086877880      -18.5825047428       41.6213376055  TIP3      3051            0.0000000000
     31473      3243  TIP3      H2             27.5207409200      -17.8563891092       40.7689756462  TIP3      3051            0.0000000000
     31474      3244  TIP3      OH2            20.8195697572      -23.4187691444       40.3824343556  TIP3      3052            0.0000000000
     31475      3244  TIP3      H1             21.8064422908      -23.4026922371       40.3850921643  TIP3      3052            0.0000000000
     31476      3244  TIP3      H2             20.6698904723      -24.0741707015       39.6811086957  TIP3      3052            0.0000000000
     31477      3245  TIP3      OH2            35.4449160912      -31.0095676713       40.4605863186  TIP3      3053            0.0000000000
     31478      3245  TIP3      H1             34.9906993187      -31.4912958040       39.7366924115  TIP3      3053            0.0000000000
     31479      3245  TIP3      H2             36.2615873331      -31.5646195579       40.5560524875  TIP3      3053            0.0000000000
     31480      3246  TIP3      OH2            36.1288795449      -33.4021519271       38.9971807830  TIP3      3054            0.0000000000
     31481      3246  TIP3      H1             36.2698978606      -34.0851147080       39.6820267808  TIP3      3054            0.0000000000
     31482      3246  TIP3      H2             35.1468084059      -33.3935359614       38.9100691708  TIP3      3054            0.0000000000
     31483      3247  TIP3      OH2            21.5718038871      -35.7774632037       41.6138949552  TIP3      3055            0.0000000000
     31484      3247  TIP3      H1             21.9602179093      -35.1914764365       42.2949131554  TIP3      3055            0.0000000000
     31485      3247  TIP3      H2             20.6887186418      -35.8988263714       41.9967340457  TIP3      3055            0.0000000000
     31486      3248  TIP3      OH2            22.9371577418      -33.8281709643       39.8395992810  TIP3      3056            0.0000000000
     31487      3248  TIP3      H1             23.6864094893      -34.2795313942       39.4104627769  TIP3      3056            0.0000000000
     31488      3248  TIP3      H2             23.2441948284      -33.8126559165       40.7676771885  TIP3      3056            0.0000000000
     31489      3249  TIP3      OH2            30.3671198836      -18.9406932751       41.1442814283  TIP3      3057            0.0000000000
     31490      3249  TIP3      H1             31.3049667948      -18.7353841730       41.0412198678  TIP3      3057            0.0000000000
     31491      3249  TIP3      H2             30.2049246560      -19.3272615575       40.2466536286  TIP3      3057            0.0000000000
     31492      3250  TIP3      OH2            22.4167527345      -19.2199014020       39.3553305155  TIP3      3058            0.0000000000
     31493      3250  TIP3      H1             22.2036880272      -18.6460960501       40.1168785792  TIP3      3058            0.0000000000
     31494      3250  TIP3      H2             23.1905311518      -19.7036147524       39.6751004122  TIP3      3058            0.0000000000
     31495      3251  TIP3      OH2           -26.2050817457       -9.8725772268       39.8501737227  TIP3      3059            0.0000000000
     31496      3251  TIP3      H1            -25.6154349832       -9.5334220319       40.5582360331  TIP3      3059            0.0000000000
     31497      3251  TIP3      H2            -25.7227264487      -10.7030987165       39.6618477465  TIP3      3059            0.0000000000
     31498      3252  TIP3      OH2           -23.9393366869       -9.0222301698       41.1267228579  TIP3      3060            0.0000000000
     31499      3252  TIP3      H1            -24.2119921974       -8.4425522067       41.8549135496  TIP3      3060            0.0000000000
     31500      3252  TIP3      H2            -23.3379649546       -8.4469862941       40.5866074811  TIP3      3060            0.0000000000
     31501      3253  TIP3      OH2           -20.1917211657      -17.4170747812       42.0382518577  TIP3      3061            0.0000000000
     31502      3253  TIP3      H1            -20.9904964406      -17.4098235613       41.5088165319  TIP3      3061            0.0000000000
     31503      3253  TIP3      H2            -19.6253090248      -16.7380116456       41.6059140441  TIP3      3061            0.0000000000
     31504      3254  TIP3      OH2           -19.0906106069       -2.7685428678       39.7376336852  TIP3      3062            0.0000000000
     31505      3254  TIP3      H1            -18.8877195283       -1.8341449480       39.9420799150  TIP3      3062            0.0000000000
     31506      3254  TIP3      H2            -18.3353967575       -3.1913502406       40.1816848479  TIP3      3062            0.0000000000
     31507      3255  TIP3      OH2           -23.2366421441       -0.5984329055       40.8449362799  TIP3      3063            0.0000000000
     31508      3255  TIP3      H1            -23.0088773114       -1.1712794616       40.0755750751  TIP3      3063            0.0000000000
     31509      3255  TIP3      H2            -22.7370090100       -1.0849113158       41.5409625021  TIP3      3063            0.0000000000
     31510      3256  TIP3      OH2           -22.1894692129       -7.4960989053       39.9683236019  TIP3      3064            0.0000000000
     31511      3256  TIP3      H1            -22.4518915876       -7.2225450805       39.0708978860  TIP3      3064            0.0000000000
     31512      3256  TIP3      H2            -21.2424734145       -7.6586753333       39.8017952725  TIP3      3064            0.0000000000
     31513      3257  TIP3      OH2           -26.5635559053      -13.9046164773       39.8903795863  TIP3      3065            0.0000000000
     31514      3257  TIP3      H1            -27.3527167732      -13.7959982852       40.4270785712  TIP3      3065            0.0000000000
     31515      3257  TIP3      H2            -26.6238145742      -14.8371917795       39.6318023618  TIP3      3065            0.0000000000
     31516      3258  TIP3      OH2           -30.2105836767      -13.8096589125       39.0815308004  TIP3      3066            0.0000000000
     31517      3258  TIP3      H1            -30.6732002076      -14.0748859745       39.9029860677  TIP3      3066            0.0000000000
     31518      3258  TIP3      H2            -30.7763233034      -13.0786114213       38.7640306076  TIP3      3066            0.0000000000
     31519      3259  TIP3      OH2           -35.7561611559      -13.5311003239       41.2977180211  TIP3      3067            0.0000000000
     31520      3259  TIP3      H1            -34.8125208905      -13.3437596349       41.1808165153  TIP3      3067            0.0000000000
     31521      3259  TIP3      H2            -36.1660879297      -12.8638081712       40.7111663404  TIP3      3067            0.0000000000
     31522      3260  TIP3      OH2           -31.0777738878      -11.2314147017       40.5900281821  TIP3      3068            0.0000000000
     31523      3260  TIP3      H1            -31.6355135997      -11.6480143856       39.9098552213  TIP3      3068            0.0000000000
     31524      3260  TIP3      H2            -30.3783935860      -10.8375612500       40.0387182801  TIP3      3068            0.0000000000
     31525      3261  TIP3      OH2           -23.8488014427      -13.7716020477       40.5961499059  TIP3      3069            0.0000000000
     31526      3261  TIP3      H1            -24.6696518263      -13.9822748538       41.0766772151  TIP3      3069            0.0000000000
     31527      3261  TIP3      H2            -23.4921025853      -13.0462803860       41.1545791397  TIP3      3069            0.0000000000
     31528      3262  TIP3      OH2           -23.3321073538      -11.5080005446       41.9406687522  TIP3      3070            0.0000000000
     31529      3262  TIP3      H1            -22.5598697059      -11.6030241809       42.5206159068  TIP3      3070            0.0000000000
     31530      3262  TIP3      H2            -23.2682763048      -10.5877552651       41.6128492486  TIP3      3070            0.0000000000
     31531      3263  TIP3      OH2           -26.0159919229       -4.9164905308       41.5714148873  TIP3      3071            0.0000000000
     31532      3263  TIP3      H1            -26.5167799317       -4.0959464093       41.7082983628  TIP3      3071            0.0000000000
     31533      3263  TIP3      H2            -26.5616341546       -5.5880707064       41.9988665309  TIP3      3071            0.0000000000
     31534      3264  TIP3      OH2           -18.4554644148      -11.4796959891       41.8480179563  TIP3      3072            0.0000000000
     31535      3264  TIP3      H1            -19.0725965008      -11.9008016329       41.2185550797  TIP3      3072            0.0000000000
     31536      3264  TIP3      H2            -18.4446504049      -10.5599958468       41.5048350565  TIP3      3072            0.0000000000
     31537      3265  TIP3      OH2           -35.1461870261       -9.0105430049       40.2671665696  TIP3      3073            0.0000000000
     31538      3265  TIP3      H1            -34.4936539054       -8.5064382658       40.8174098447  TIP3      3073            0.0000000000
     31539      3265  TIP3      H2            -35.9879039108       -8.7001985965       40.6169108407  TIP3      3073            0.0000000000
     31540      3266  TIP3      OH2           -22.4726392024       -4.6543629258       40.5229036229  TIP3      3074            0.0000000000
     31541      3266  TIP3      H1            -22.7652625596       -4.3193388942       41.3805565010  TIP3      3074            0.0000000000
     31542      3266  TIP3      H2            -23.3219136976       -4.9428310804       40.1471167237  TIP3      3074            0.0000000000
     31543      3267  TIP3      OH2           -18.5603758726       -0.2676108492       40.5213775250  TIP3      3075            0.0000000000
     31544      3267  TIP3      H1            -17.6970785992        0.1532599604       40.6780225871  TIP3      3075            0.0000000000
     31545      3267  TIP3      H2            -19.1240553718        0.3046913639       41.0759157374  TIP3      3075            0.0000000000
     31546      3268  TIP3      OH2           -28.3794043726       -3.5632704219       38.5981542326  TIP3      3076            0.0000000000
     31547      3268  TIP3      H1            -28.9231916868       -4.0112023604       37.9276824558  TIP3      3076            0.0000000000
     31548      3268  TIP3      H2            -28.7061629388       -4.0165111699       39.3935644046  TIP3      3076            0.0000000000
     31549      3269  TIP3      OH2           -30.1924205688       -4.2204746701       41.2842071300  TIP3      3077            0.0000000000
     31550      3269  TIP3      H1            -29.4248132383       -4.4217988299       41.8417135011  TIP3      3077            0.0000000000
     31551      3269  TIP3      H2            -30.4940781035       -3.3538575250       41.6307877984  TIP3      3077            0.0000000000
     31552      3270  TIP3      OH2           -33.6744434245       -7.2288700820       41.6258844835  TIP3      3078            0.0000000000
     31553      3270  TIP3      H1            -33.0049407899       -7.4023434379       42.2995957818  TIP3      3078            0.0000000000
     31554      3270  TIP3      H2            -33.3865819634       -6.3449193411       41.3145650130  TIP3      3078            0.0000000000
     31555      3271  TIP3      OH2           -27.7319634955       -2.4422758182       41.6878686748  TIP3      3079            0.0000000000
     31556      3271  TIP3      H1            -28.6464940367       -2.1306090209       41.7854961007  TIP3      3079            0.0000000000
     31557      3271  TIP3      H2            -27.3430260842       -1.7090321645       41.1674550089  TIP3      3079            0.0000000000
     31558      3272  TIP3      OH2           -30.5760526476       -1.8090848188       42.4536637257  TIP3      3080            0.0000000000
     31559      3272  TIP3      H1            -30.3408989534       -1.1412282275       41.7867616354  TIP3      3080            0.0000000000
     31560      3272  TIP3      H2            -30.6068123723       -1.2527059718       43.2464249591  TIP3      3080            0.0000000000
     31561      3273  TIP3      OH2           -31.3407851032      -14.8763826206       41.2861469406  TIP3      3081            0.0000000000
     31562      3273  TIP3      H1            -31.0067645380      -14.2322022111       41.9616713412  TIP3      3081            0.0000000000
     31563      3273  TIP3      H2            -30.7239423995      -15.6156884076       41.3715514121  TIP3      3081            0.0000000000
     31564      3274  TIP3      OH2           -32.8131536156       -4.7490854603       40.6239994411  TIP3      3082            0.0000000000
     31565      3274  TIP3      H1            -32.1749046815       -4.2721081140       41.1850598568  TIP3      3082            0.0000000000
     31566      3274  TIP3      H2            -32.1895546570       -5.1297419338       39.9773278617  TIP3      3082            0.0000000000
     31567      3275  TIP3      OH2           -34.2902596261      -11.4701884407       39.4726503935  TIP3      3083            0.0000000000
     31568      3275  TIP3      H1            -34.2918925351      -10.8142354846       40.1910730162  TIP3      3083            0.0000000000
     31569      3275  TIP3      H2            -35.2367841293      -11.6890151566       39.3987416125  TIP3      3083            0.0000000000
     31570      3276  TIP3      OH2           -26.6384197705       -1.5470090460       38.8810555862  TIP3      3084            0.0000000000
     31571      3276  TIP3      H1            -27.1901419874       -2.3661174231       38.8235373562  TIP3      3084            0.0000000000
     31572      3276  TIP3      H2            -25.8146067450       -1.8527142682       38.4328439019  TIP3      3084            0.0000000000
     31573      3277  TIP3      OH2           -22.2566430783       -2.2418466691       38.8926958780  TIP3      3085            0.0000000000
     31574      3277  TIP3      H1            -21.8835735475       -2.7890133794       39.6157955553  TIP3      3085            0.0000000000
     31575      3277  TIP3      H2            -21.4689538909       -2.1672880718       38.3154633801  TIP3      3085            0.0000000000
     31576      3278  TIP3      OH2           -31.1267071439       -6.4080446790       38.7619020611  TIP3      3086            0.0000000000
     31577      3278  TIP3      H1            -30.8283895411       -6.7132921156       39.6374840750  TIP3      3086            0.0000000000
     31578      3278  TIP3      H2            -30.3614176243       -6.6555842573       38.1985326136  TIP3      3086            0.0000000000
     31579      3279  TIP3      OH2           -25.1818617389       -4.9928272507       38.9198676819  TIP3      3087            0.0000000000
     31580      3279  TIP3      H1            -25.5022492587       -5.0019322469       39.8457727144  TIP3      3087            0.0000000000
     31581      3279  TIP3      H2            -25.5566069396       -5.8445445975       38.5896011748  TIP3      3087            0.0000000000
     31582      3280  TIP3      OH2           -30.0935519314       -7.9141036330       41.0359384695  TIP3      3088            0.0000000000
     31583      3280  TIP3      H1            -30.7367280299       -8.4518902750       41.5234426910  TIP3      3088            0.0000000000
     31584      3280  TIP3      H2            -29.7693889323       -8.5587864472       40.3696795747  TIP3      3088            0.0000000000
     31585      3281  TIP3      OH2           -28.9868036860       -9.6165125910       39.2976734527  TIP3      3089            0.0000000000
     31586      3281  TIP3      H1            -29.0913827982       -9.5414726218       38.3251816604  TIP3      3089            0.0000000000
     31587      3281  TIP3      H2            -28.0244028657       -9.7572137337       39.3813345534  TIP3      3089            0.0000000000
     31588      3282  TIP3      OH2           -19.6058856203       -7.6235807964       38.9556675361  TIP3      3090            0.0000000000
     31589      3282  TIP3      H1            -19.6474197820       -7.8860656935       38.0068688974  TIP3      3090            0.0000000000
     31590      3282  TIP3      H2            -19.6866151640       -6.6380816128       38.8620326455  TIP3      3090            0.0000000000
     31591      3283  TIP3      OH2           -29.0332165775        0.2713582316       41.3915906931  TIP3      3091            0.0000000000
     31592      3283  TIP3      H1            -28.0571819452        0.2669234837       41.4032652770  TIP3      3091            0.0000000000
     31593      3283  TIP3      H2            -29.2140856503        0.9434399357       40.7100938067  TIP3      3091            0.0000000000
     31594      3284  TIP3      OH2           -35.5923192556       -4.2717329241       40.4105941474  TIP3      3092            0.0000000000
     31595      3284  TIP3      H1            -34.6166250876       -4.1733829009       40.4134322889  TIP3      3092            0.0000000000
     31596      3284  TIP3      H2            -35.6722819125       -5.0256996020       39.8019587098  TIP3      3092            0.0000000000
     31597      3285  TIP3      OH2           -18.0665122278       -8.7604291942       40.9596646483  TIP3      3093            0.0000000000
     31598      3285  TIP3      H1            -18.5805826328       -8.4904494837       40.1660295071  TIP3      3093            0.0000000000
     31599      3285  TIP3      H2            -18.2526835422       -8.0308948584       41.5783887263  TIP3      3093            0.0000000000
     31600      3286  TIP3      OH2           -20.2670188617      -11.3590418772       39.4647237156  TIP3      3094            0.0000000000
     31601      3286  TIP3      H1            -19.8206957157      -10.9291126338       38.7114152150  TIP3      3094            0.0000000000
     31602      3286  TIP3      H2            -20.4542086329      -12.2614658820       39.1286979150  TIP3      3094            0.0000000000
     31603      3287  TIP3      OH2           -20.7203103476      -14.0700322348       39.1199678316  TIP3      3095            0.0000000000
     31604      3287  TIP3      H1            -20.1437539974      -14.5135598717       39.7788181477  TIP3      3095            0.0000000000
     31605      3287  TIP3      H2            -21.5665121332      -14.0972808071       39.5920950675  TIP3      3095            0.0000000000
     31606      3288  TIP3      OH2           -18.7188368177      -15.5700586631       40.6506956046  TIP3      3096            0.0000000000
     31607      3288  TIP3      H1            -18.3259408038      -16.1527306145       39.9524016781  TIP3      3096            0.0000000000
     31608      3288  TIP3      H2            -17.9211718884      -15.0564226475       40.9120316285  TIP3      3096            0.0000000000
     31609      3289  TIP3      OH2           -34.8017163041      -16.9329572914       40.9517940624  TIP3      3097            0.0000000000
     31610      3289  TIP3      H1            -34.5550696281      -16.0165245064       40.6982601998  TIP3      3097            0.0000000000
     31611      3289  TIP3      H2            -35.3181301056      -16.7455445284       41.7566456429  TIP3      3097            0.0000000000
     31612      3290  TIP3      OH2           -33.5192191867      -14.7800246810       39.8478910937  TIP3      3098            0.0000000000
     31613      3290  TIP3      H1            -32.8867367793      -15.3523328533       39.3735910406  TIP3      3098            0.0000000000
     31614      3290  TIP3      H2            -33.0470251125      -14.6775099026       40.7029957951  TIP3      3098            0.0000000000
     31615      3291  TIP3      OH2           -26.1050341096       -0.1687979304       41.0263749114  TIP3      3099            0.0000000000
     31616      3291  TIP3      H1            -25.1460279993       -0.0257127710       41.0185534491  TIP3      3099            0.0000000000
     31617      3291  TIP3      H2            -26.2264769398       -0.4699026972       40.0955683084  TIP3      3099            0.0000000000
     31618      3292  TIP3      OH2           -34.0049476921        0.0528023206       39.2823008506  TIP3      3100            0.0000000000
     31619      3292  TIP3      H1            -34.3289463116        0.6769441148       39.9736926714  TIP3      3100            0.0000000000
     31620      3292  TIP3      H2            -33.3208078739       -0.4167243905       39.7807747297  TIP3      3100            0.0000000000
     31621      3293  TIP3      OH2            -7.7061197733       -9.7893574101       40.3608613245  TIP3      3101            0.0000000000
     31622      3293  TIP3      H1             -7.0475703755       -9.2605102249       40.8527967750  TIP3      3101            0.0000000000
     31623      3293  TIP3      H2             -7.0681833513      -10.3322952472       39.8607786309  TIP3      3101            0.0000000000
     31624      3294  TIP3      OH2            -5.3118467399       -8.7849912323       41.0080876978  TIP3      3102            0.0000000000
     31625      3294  TIP3      H1             -5.4217922384       -8.3661742904       41.8727204133  TIP3      3102            0.0000000000
     31626      3294  TIP3      H2             -4.6126328343       -8.2608161408       40.5609434635  TIP3      3102            0.0000000000
     31627      3295  TIP3      OH2            -1.1401816401      -17.3855213041       42.1149380476  TIP3      3103            0.0000000000
     31628      3295  TIP3      H1             -2.0335013378      -17.4723652366       41.7028164874  TIP3      3103            0.0000000000
     31629      3295  TIP3      H2             -0.8984145562      -16.5768080050       41.6167136355  TIP3      3103            0.0000000000
     31630      3296  TIP3      OH2            -0.2536863456       -2.8600424765       39.8231108821  TIP3      3104            0.0000000000
     31631      3296  TIP3      H1             -0.0673994802       -1.9107261352       39.9776033145  TIP3      3104            0.0000000000
     31632      3296  TIP3      H2              0.5438126305       -3.2341614945       40.2429935855  TIP3      3104            0.0000000000
     31633      3297  TIP3      OH2            -4.3224628255       -0.5650909158       40.8349627337  TIP3      3105            0.0000000000
     31634      3297  TIP3      H1             -4.0565422142       -1.1146647864       40.0671924627  TIP3      3105            0.0000000000
     31635      3297  TIP3      H2             -3.8884945964       -1.0871290508       41.5488093446  TIP3      3105            0.0000000000
     31636      3298  TIP3      OH2            -3.2920723870       -7.3901458726       40.0129087277  TIP3      3106            0.0000000000
     31637      3298  TIP3      H1             -3.5527707002       -7.2363974122       39.0824803094  TIP3      3106            0.0000000000
     31638      3298  TIP3      H2             -2.3389018579       -7.5594068330       39.8817456414  TIP3      3106            0.0000000000
     31639      3299  TIP3      OH2            -7.7777451758      -14.2321489613       40.3853393267  TIP3      3107            0.0000000000
     31640      3299  TIP3      H1             -8.6601986135      -14.2810653933       40.7537750361  TIP3      3107            0.0000000000
     31641      3299  TIP3      H2             -7.7421572792      -14.9573078809       39.7482279484  TIP3      3107            0.0000000000
     31642      3300  TIP3      OH2           -11.4413033702      -13.8074701018       39.0906796734  TIP3      3108            0.0000000000
     31643      3300  TIP3      H1            -12.0333492692      -14.1566803737       39.8021383140  TIP3      3108            0.0000000000
     31644      3300  TIP3      H2            -11.9525622448      -13.0334758248       38.7706169912  TIP3      3108            0.0000000000
     31645      3301  TIP3      OH2           -16.9302638628      -13.7802632655       41.5198602462  TIP3      3109            0.0000000000
     31646      3301  TIP3      H1            -16.2330594913      -13.3011466244       41.0329026366  TIP3      3109            0.0000000000
     31647      3301  TIP3      H2            -17.4487659928      -13.0021497494       41.8037957909  TIP3      3109            0.0000000000
     31648      3302  TIP3      OH2           -12.3277145311      -11.2564397227       40.6005206369  TIP3      3110            0.0000000000
     31649      3302  TIP3      H1            -12.7633000510      -11.6717755893       39.8403186263  TIP3      3110            0.0000000000
     31650      3302  TIP3      H2            -11.5979516378      -10.7898321557       40.1575978653  TIP3      3110            0.0000000000
     31651      3303  TIP3      OH2            -5.2794277593      -13.2884187486       40.5354466004  TIP3      3111            0.0000000000
     31652      3303  TIP3      H1             -6.2228352222      -13.4662947451       40.7518113752  TIP3      3111            0.0000000000
     31653      3303  TIP3      H2             -5.0087944888      -12.6933820833       41.2716308224  TIP3      3111            0.0000000000
     31654      3304  TIP3      OH2            -4.5761934524      -11.3029943842       42.1641111040  TIP3      3112            0.0000000000
     31655      3304  TIP3      H1             -3.6437922381      -11.4438080987       42.4066430980  TIP3      3112            0.0000000000
     31656      3304  TIP3      H2             -4.5538862121      -10.5870113058       41.5086868335  TIP3      3112            0.0000000000
     31657      3305  TIP3      OH2            -7.0548471141       -5.0921940431       41.6791720442  TIP3      3113            0.0000000000
     31658      3305  TIP3      H1             -7.5734163319       -4.2614340415       41.6769998030  TIP3      3113            0.0000000000
     31659      3305  TIP3      H2             -7.6653459702       -5.6932467172       42.1187655114  TIP3      3113            0.0000000000
     31660      3306  TIP3      OH2             0.4581717117      -11.5353873576       42.0163800576  TIP3      3114            0.0000000000
     31661      3306  TIP3      H1             -0.0761800481      -11.9218330155       41.3000257353  TIP3      3114            0.0000000000
     31662      3306  TIP3      H2              0.5385936356      -10.6102721605       41.7002430016  TIP3      3114            0.0000000000
     31663      3307  TIP3      OH2           -15.3050637035       -8.6003363084       40.0498514059  TIP3      3115            0.0000000000
     31664      3307  TIP3      H1            -14.9717571286       -7.9523125777       40.7056349914  TIP3      3115            0.0000000000
     31665      3307  TIP3      H2            -16.1871002075       -8.7896106002       40.4250576964  TIP3      3115            0.0000000000
     31666      3308  TIP3      OH2            -3.4210136136       -4.5357860091       40.5073694013  TIP3      3116            0.0000000000
     31667      3308  TIP3      H1             -3.6606075751       -4.2818227473       41.4098277984  TIP3      3116            0.0000000000
     31668      3308  TIP3      H2             -4.2587892271       -4.9388854050       40.2135272154  TIP3      3116            0.0000000000
     31669      3309  TIP3      OH2             0.3420350894       -0.3671157441       40.5368057367  TIP3      3117            0.0000000000
     31670      3309  TIP3      H1              1.1527824441        0.1463715642       40.6251272408  TIP3      3117            0.0000000000
     31671      3309  TIP3      H2             -0.2527785646        0.1752452784       41.0887287545  TIP3      3117            0.0000000000
     31672      3310  TIP3      OH2            -9.8038853283       -3.6568252896       38.8507178851  TIP3      3118            0.0000000000
     31673      3310  TIP3      H1            -10.1747317659       -4.1555523721       38.1036970416  TIP3      3118            0.0000000000
     31674      3310  TIP3      H2            -10.2052046133       -4.1291091718       39.6184709192  TIP3      3118            0.0000000000
     31675      3311  TIP3      OH2           -11.0831012246       -4.2299014653       41.1859422931  TIP3      3119            0.0000000000
     31676      3311  TIP3      H1            -10.8661472302       -4.8328745063       41.9093159172  TIP3      3119            0.0000000000
     31677      3311  TIP3      H2            -11.1948597275       -3.3899018266       41.6831382420  TIP3      3119            0.0000000000
     31678      3312  TIP3      OH2           -14.6804970014       -6.8056341009       41.8838784222  TIP3      3120            0.0000000000
     31679      3312  TIP3      H1            -14.5026891453       -7.5753140358       42.4487497795  TIP3      3120            0.0000000000
     31680      3312  TIP3      H2            -13.7826598847       -6.5288762031       41.6369267486  TIP3      3120            0.0000000000
     31681      3313  TIP3      OH2            -8.5478841599       -2.7463424850       41.7781718745  TIP3      3121            0.0000000000
     31682      3313  TIP3      H1             -9.4610806273       -2.3985596041       41.7823514435  TIP3      3121            0.0000000000
     31683      3313  TIP3      H2             -8.1131365064       -2.0961080411       41.2009004322  TIP3      3121            0.0000000000
     31684      3314  TIP3      OH2           -11.2540635199       -1.8454528236       42.3558260303  TIP3      3122            0.0000000000
     31685      3314  TIP3      H1            -11.3309956908       -1.2353583580       41.5986012355  TIP3      3122            0.0000000000
     31686      3314  TIP3      H2            -11.0563818291       -1.2181688445       43.0618446439  TIP3      3122            0.0000000000
     31687      3315  TIP3      OH2           -12.6603482390      -14.9172612786       41.2164057456  TIP3      3123            0.0000000000
     31688      3315  TIP3      H1            -12.4220426647      -14.3277939255       41.9684582577  TIP3      3123            0.0000000000
     31689      3315  TIP3      H2            -11.8934556461      -15.5112626187       41.1872664946  TIP3      3123            0.0000000000
     31690      3316  TIP3      OH2           -14.1496341740       -4.1571286722       40.4227717068  TIP3      3124            0.0000000000
     31691      3316  TIP3      H1            -13.5067894125       -3.8256667431       41.0654164109  TIP3      3124            0.0000000000
     31692      3316  TIP3      H2            -13.5620066653       -4.6985829404       39.8799860108  TIP3      3124            0.0000000000
     31693      3317  TIP3      OH2           -15.8568400430      -11.6064906641       39.9569415963  TIP3      3125            0.0000000000
     31694      3317  TIP3      H1            -15.4291262067      -10.7389953113       39.8884764744  TIP3      3125            0.0000000000
     31695      3317  TIP3      H2            -16.6468178198      -11.5016928996       39.4188538629  TIP3      3125            0.0000000000
     31696      3318  TIP3      OH2            -7.7739032966       -1.5448407626       38.9658590105  TIP3      3126            0.0000000000
     31697      3318  TIP3      H1             -8.3220770217       -2.3507603687       38.8568342807  TIP3      3126            0.0000000000
     31698      3318  TIP3      H2             -6.9504289069       -1.8180010650       38.5015971077  TIP3      3126            0.0000000000
     31699      3319  TIP3      OH2            -3.3697805683       -2.3048389617       38.7909651715  TIP3      3127            0.0000000000
     31700      3319  TIP3      H1             -3.2172465126       -3.0459819912       39.4192979958  TIP3      3127            0.0000000000
     31701      3319  TIP3      H2             -2.5017182940       -2.2645019862       38.3394901739  TIP3      3127            0.0000000000
     31702      3320  TIP3      OH2           -12.2953161304       -6.2883768749       38.7290411779  TIP3      3128            0.0000000000
     31703      3320  TIP3      H1            -11.9125068709       -6.5107510794       39.5865215136  TIP3      3128            0.0000000000
     31704      3320  TIP3      H2            -11.5680286909       -6.5492295975       38.1082335233  TIP3      3128            0.0000000000
     31705      3321  TIP3      OH2            -6.4686899314       -4.8776345303       38.9927631754  TIP3      3129            0.0000000000
     31706      3321  TIP3      H1             -6.6971109354       -5.0261145970       39.9348591668  TIP3      3129            0.0000000000
     31707      3321  TIP3      H2             -6.6553577385       -5.7716719295       38.6085224035  TIP3      3129            0.0000000000
     31708      3322  TIP3      OH2           -11.1569646044       -8.1026400004       41.0853930981  TIP3      3130            0.0000000000
     31709      3322  TIP3      H1            -11.1829657753       -8.7931370190       41.7743424903  TIP3      3130            0.0000000000
     31710      3322  TIP3      H2            -10.8806135959       -8.6449160590       40.3031931097  TIP3      3130            0.0000000000
     31711      3323  TIP3      OH2           -10.1300392263       -9.7220344291       39.2796327124  TIP3      3131            0.0000000000
     31712      3323  TIP3      H1            -10.0105573746       -9.4079700359       38.3594217114  TIP3      3131            0.0000000000
     31713      3323  TIP3      H2             -9.2077970223       -9.9235657139       39.5697559619  TIP3      3131            0.0000000000
     31714      3324  TIP3      OH2            -0.6896513086       -7.6950298278       39.0201529477  TIP3      3132            0.0000000000
     31715      3324  TIP3      H1             -0.8073544397       -7.9736843294       38.0749252458  TIP3      3132            0.0000000000
     31716      3324  TIP3      H2             -0.6703639587       -6.7053002382       38.9052504800  TIP3      3132            0.0000000000
     31717      3325  TIP3      OH2           -10.1018517061        0.4275382048       41.4255706744  TIP3      3133            0.0000000000
     31718      3325  TIP3      H1             -9.1372534104        0.3247982501       41.2937395420  TIP3      3133            0.0000000000
     31719      3325  TIP3      H2            -10.3285223335        1.0216161966       40.6825431768  TIP3      3133            0.0000000000
     31720      3326  TIP3      OH2           -16.9539314863       -4.5857108261       40.3731082318  TIP3      3134            0.0000000000
     31721      3326  TIP3      H1            -15.9743179496       -4.6549500061       40.3977501284  TIP3      3134            0.0000000000
     31722      3326  TIP3      H2            -17.1524306874       -5.0926929945       39.5625799347  TIP3      3134            0.0000000000
     31723      3327  TIP3      OH2             0.8189535599       -8.7723414774       40.9429037884  TIP3      3135            0.0000000000
     31724      3327  TIP3      H1              0.2868741835       -8.5204484052       40.1547851284  TIP3      3135            0.0000000000
     31725      3327  TIP3      H2              0.5699723227       -8.0628082053       41.5683723008  TIP3      3135            0.0000000000
     31726      3328  TIP3      OH2            -1.2890464705      -11.4663390843       39.5204817250  TIP3      3136            0.0000000000
     31727      3328  TIP3      H1             -1.1064686439      -11.0149574457       38.6841430545  TIP3      3136            0.0000000000
     31728      3328  TIP3      H2             -1.6356279917      -12.3397391944       39.2334402668  TIP3      3136            0.0000000000
     31729      3329  TIP3      OH2            -1.9150515622      -14.2373824950       39.1484031063  TIP3      3137            0.0000000000
     31730      3329  TIP3      H1             -1.2634219577      -14.6785087570       39.7442191079  TIP3      3137            0.0000000000
     31731      3329  TIP3      H2             -2.7381657791      -14.5518313890       39.5653907841  TIP3      3137            0.0000000000
     31732      3330  TIP3      OH2            -0.0358315394      -15.5061526557       40.5415813626  TIP3      3138            0.0000000000
     31733      3330  TIP3      H1              0.3394474757      -16.0593758589       39.8149565489  TIP3      3138            0.0000000000
     31734      3330  TIP3      H2              0.7807240040      -15.2021255339       40.9908438370  TIP3      3138            0.0000000000
     31735      3331  TIP3      OH2           -15.9886458761      -16.9468102340       41.4242568786  TIP3      3139            0.0000000000
     31736      3331  TIP3      H1            -15.8795121763      -16.1592324360       40.8410624790  TIP3      3139            0.0000000000
     31737      3331  TIP3      H2            -15.7140234692      -16.5696109849       42.2868351579  TIP3      3139            0.0000000000
     31738      3332  TIP3      OH2           -14.8639882977      -15.2293262332       39.7173297713  TIP3      3140            0.0000000000
     31739      3332  TIP3      H1            -14.2200696261      -15.7561724283       39.1934881588  TIP3      3140            0.0000000000
     31740      3332  TIP3      H2            -14.3113376314      -14.9903934908       40.4941299294  TIP3      3140            0.0000000000
     31741      3333  TIP3      OH2            -7.3549349113       -0.0657086266       41.0596736818  TIP3      3141            0.0000000000
     31742      3333  TIP3      H1             -6.4258887587        0.1851454835       40.9973917281  TIP3      3141            0.0000000000
     31743      3333  TIP3      H2             -7.4824219157       -0.4579820026       40.1627752749  TIP3      3141            0.0000000000
     31744      3334  TIP3      OH2           -15.2179817507       -0.2316445872       39.3238781262  TIP3      3142            0.0000000000
     31745      3334  TIP3      H1            -15.4298205287        0.2937225065       40.1217730716  TIP3      3142            0.0000000000
     31746      3334  TIP3      H2            -14.5647171155       -0.8613485969       39.6634676062  TIP3      3142            0.0000000000
     31747      3335  TIP3      OH2            11.3335050330       -9.6779776198       40.1569677665  TIP3      3143            0.0000000000
     31748      3335  TIP3      H1             12.0413598486       -9.2737802939       40.6961640811  TIP3      3143            0.0000000000
     31749      3335  TIP3      H2             11.8768694377      -10.3658313886       39.7179132357  TIP3      3143            0.0000000000
     31750      3336  TIP3      OH2            13.7643903016       -8.9734046862       41.1638101128  TIP3      3144            0.0000000000
     31751      3336  TIP3      H1             13.6950026256       -8.4631377235       41.9791812014  TIP3      3144            0.0000000000
     31752      3336  TIP3      H2             14.2964254462       -8.3804719066       40.5804356622  TIP3      3144            0.0000000000
     31753      3337  TIP3      OH2            17.6327007480      -17.3669500811       41.9779963590  TIP3      3145            0.0000000000
     31754      3337  TIP3      H1             16.7743860398      -17.3365693242       41.5387170073  TIP3      3145            0.0000000000
     31755      3337  TIP3      H2             18.0804190836      -16.5806946058       41.5961088594  TIP3      3145            0.0000000000
     31756      3338  TIP3      OH2            18.8404683035       -2.9244248722       39.7344604998  TIP3      3146            0.0000000000
     31757      3338  TIP3      H1             19.0334808175       -2.0092246888       40.0125797396  TIP3      3146            0.0000000000
     31758      3338  TIP3      H2             19.6117592071       -3.3931597640       40.1086654148  TIP3      3146            0.0000000000
     31759      3339  TIP3      OH2            14.4789806062       -0.6214019257       40.7738132576  TIP3      3147            0.0000000000
     31760      3339  TIP3      H1             14.7311099196       -1.2302038906       40.0437744052  TIP3      3147            0.0000000000
     31761      3339  TIP3      H2             14.9556161533       -1.0710042059       41.5084428792  TIP3      3147            0.0000000000
     31762      3340  TIP3      OH2            15.4913890443       -7.4264463945       40.0074204090  TIP3      3148            0.0000000000
     31763      3340  TIP3      H1             15.2669471111       -7.2286969541       39.0709649473  TIP3      3148            0.0000000000
     31764      3340  TIP3      H2             16.4460319842       -7.6108861692       39.9039507612  TIP3      3148            0.0000000000
     31765      3341  TIP3      OH2            11.1362564328      -14.3041070507       40.3262469026  TIP3      3149            0.0000000000
     31766      3341  TIP3      H1             10.4928829637      -13.8835265336       40.9070954753  TIP3      3149            0.0000000000
     31767      3341  TIP3      H2             10.6260455079      -15.0066520012       39.8981336018  TIP3      3149            0.0000000000
     31768      3342  TIP3      OH2             7.4063784201      -13.7684758006       39.2028075361  TIP3      3150            0.0000000000
     31769      3342  TIP3      H1              6.8140685114      -14.1133206091       39.9088371988  TIP3      3150            0.0000000000
     31770      3342  TIP3      H2              6.8945232360      -12.9853423723       38.8988902265  TIP3      3150            0.0000000000
     31771      3343  TIP3      OH2             1.9286470924      -13.9428169123       41.6233517917  TIP3      3151            0.0000000000
     31772      3343  TIP3      H1              2.6561325380      -13.5685800918       41.0946884500  TIP3      3151            0.0000000000
     31773      3343  TIP3      H2              1.4671397384      -13.1251893477       41.8693622706  TIP3      3151            0.0000000000
     31774      3344  TIP3      OH2             6.4415234666      -11.1361106707       40.5529637704  TIP3      3152            0.0000000000
     31775      3344  TIP3      H1              5.9261651041      -11.4775467022       39.8070516773  TIP3      3152            0.0000000000
     31776      3344  TIP3      H2              6.9910682180      -10.4657508519       40.1144379060  TIP3      3152            0.0000000000
     31777      3345  TIP3      OH2            13.6705091687      -13.2675473888       40.1919490460  TIP3      3153            0.0000000000
     31778      3345  TIP3      H1             12.7301655691      -13.4843454638       40.3889006567  TIP3      3153            0.0000000000
     31779      3345  TIP3      H2             13.9709577337      -12.8153086873       41.0105605567  TIP3      3153            0.0000000000
     31780      3346  TIP3      OH2            14.2718432254      -11.5268955803       42.0828287105  TIP3      3154            0.0000000000
     31781      3346  TIP3      H1             15.1050674925      -11.5492374441       42.5794655574  TIP3      3154            0.0000000000
     31782      3346  TIP3      H2             14.3293043001      -10.6969713733       41.5684243949  TIP3      3154            0.0000000000
     31783      3347  TIP3      OH2            11.8118154488       -5.0766485032       41.6960359325  TIP3      3155            0.0000000000
     31784      3347  TIP3      H1             11.2710986963       -4.2596270408       41.7048958080  TIP3      3155            0.0000000000
     31785      3347  TIP3      H2             11.2159222809       -5.7248664493       42.0914293523  TIP3      3155            0.0000000000
     31786      3348  TIP3      OH2            19.2283755259      -11.5315220495       41.8426708082  TIP3      3156            0.0000000000
     31787      3348  TIP3      H1             18.5823064028      -11.9622749926       41.2275025627  TIP3      3156            0.0000000000
     31788      3348  TIP3      H2             19.1001295545      -10.6014600844       41.5490108199  TIP3      3156            0.0000000000
     31789      3349  TIP3      OH2             3.6063768999       -8.6556951049       40.0171976117  TIP3      3157            0.0000000000
     31790      3349  TIP3      H1              3.8171783756       -7.8883093253       40.5882446137  TIP3      3157            0.0000000000
     31791      3349  TIP3      H2              2.6787662144       -8.8003247080       40.2854854009  TIP3      3157            0.0000000000
     31792      3350  TIP3      OH2            15.2341472562       -4.5652530100       40.4685931397  TIP3      3158            0.0000000000
     31793      3350  TIP3      H1             15.0461377323       -4.2966855608       41.3781552764  TIP3      3158            0.0000000000
     31794      3350  TIP3      H2             14.3814531256       -4.9593606009       40.2140295662  TIP3      3158            0.0000000000
     31795      3351  TIP3      OH2            19.1742854092       -0.4426735949       40.5396649417  TIP3      3159            0.0000000000
     31796      3351  TIP3      H1             19.9437125368        0.1280792742       40.6343747138  TIP3      3159            0.0000000000
     31797      3351  TIP3      H2             18.4608693561        0.1294591950       40.8743454575  TIP3      3159            0.0000000000
     31798      3352  TIP3      OH2             9.1078373458       -3.5952015666       38.8929704160  TIP3      3160            0.0000000000
     31799      3352  TIP3      H1              8.8227005005       -4.1351924658       38.1387695605  TIP3      3160            0.0000000000
     31800      3352  TIP3      H2              8.7098231860       -4.1142936277       39.6318020640  TIP3      3160            0.0000000000
     31801      3353  TIP3      OH2             7.8351898762       -4.3260609716       41.1587279237  TIP3      3161            0.0000000000
     31802      3353  TIP3      H1              8.1120755378       -4.7464891512       41.9898415754  TIP3      3161            0.0000000000
     31803      3353  TIP3      H2              7.6063724487       -3.4262594380       41.4792596207  TIP3      3161            0.0000000000
     31804      3354  TIP3      OH2             4.1327567871       -6.7956254937       41.8431139621  TIP3      3162            0.0000000000
     31805      3354  TIP3      H1              4.1281959697       -7.5480997693       42.4549244847  TIP3      3162            0.0000000000
     31806      3354  TIP3      H2              5.0748143502       -6.5468257386       41.8389809564  TIP3      3162            0.0000000000
     31807      3355  TIP3      OH2            10.2944082544       -2.7367489851       41.6936214135  TIP3      3163            0.0000000000
     31808      3355  TIP3      H1              9.3791347535       -2.4023447067       41.6882080482  TIP3      3163            0.0000000000
     31809      3355  TIP3      H2             10.7654311826       -2.0331488183       41.2115307949  TIP3      3163            0.0000000000
     31810      3356  TIP3      OH2             7.5114780540       -1.8933184039       42.3477851874  TIP3      3164            0.0000000000
     31811      3356  TIP3      H1              7.4297842268       -1.1908257680       41.6812410495  TIP3      3164            0.0000000000
     31812      3356  TIP3      H2              7.7526743222       -1.3540304459       43.1126682300  TIP3      3164            0.0000000000
     31813      3357  TIP3      OH2             6.2334297889      -14.9067969365       41.3060244207  TIP3      3165            0.0000000000
     31814      3357  TIP3      H1              6.5746539775      -14.2408194776       41.9481588771  TIP3      3165            0.0000000000
     31815      3357  TIP3      H2              6.9735400195      -15.5251847014       41.2704120467  TIP3      3165            0.0000000000
     31816      3358  TIP3      OH2             4.6963121350       -4.2341852501       40.3239814845  TIP3      3166            0.0000000000
     31817      3358  TIP3      H1              5.2995770747       -3.9725635675       41.0371497960  TIP3      3166            0.0000000000
     31818      3358  TIP3      H2              5.3099040305       -4.7647191804       39.7986053099  TIP3      3166            0.0000000000
     31819      3359  TIP3      OH2             3.0074028442      -11.6120191949       40.1255599541  TIP3      3167            0.0000000000
     31820      3359  TIP3      H1              3.5311215606      -10.7979235686       40.1770686490  TIP3      3167            0.0000000000
     31821      3359  TIP3      H2              2.3205676693      -11.3829566915       39.4864508496  TIP3      3167            0.0000000000
     31822      3360  TIP3      OH2            11.0466542545       -1.5343815086       38.9616569666  TIP3      3168            0.0000000000
     31823      3360  TIP3      H1             10.4779274116       -2.3356350982       38.8632582080  TIP3      3168            0.0000000000
     31824      3360  TIP3      H2             11.8540020840       -1.8302707189       38.4836350904  TIP3      3168            0.0000000000
     31825      3361  TIP3      OH2            15.4890014482       -2.2630311334       38.7998683287  TIP3      3169            0.0000000000
     31826      3361  TIP3      H1             15.6448511732       -3.0029513604       39.4277125432  TIP3      3169            0.0000000000
     31827      3361  TIP3      H2             16.2769499036       -2.3300519757       38.2239694769  TIP3      3169            0.0000000000
     31828      3362  TIP3      OH2             6.6299104974       -6.1604457728       38.8655014055  TIP3      3170            0.0000000000
     31829      3362  TIP3      H1              7.0329436176       -6.3235129445       39.7382475331  TIP3      3170            0.0000000000
     31830      3362  TIP3      H2              7.3504397601       -6.4743678079       38.2681489676  TIP3      3170            0.0000000000
     31831      3363  TIP3      OH2            12.3629452003       -4.9041960813       39.0291759577  TIP3      3171            0.0000000000
     31832      3363  TIP3      H1             12.0986948284       -5.0293761859       39.9677381436  TIP3      3171            0.0000000000
     31833      3363  TIP3      H2             12.1302970812       -5.7856329680       38.6443753438  TIP3      3171            0.0000000000
     31834      3364  TIP3      OH2             7.6124021711       -7.9964692843       41.0442794493  TIP3      3172            0.0000000000
     31835      3364  TIP3      H1              7.4026972992       -8.6685713185       41.7147584812  TIP3      3172            0.0000000000
     31836      3364  TIP3      H2              7.9626008945       -8.5482497843       40.3092187291  TIP3      3172            0.0000000000
     31837      3365  TIP3      OH2             8.7667192367       -9.6931546083       39.3666418271  TIP3      3173            0.0000000000
     31838      3365  TIP3      H1              8.7893958713       -9.4075357850       38.4301545794  TIP3      3173            0.0000000000
     31839      3365  TIP3      H2              9.7176046482       -9.8782142577       39.5536890941  TIP3      3173            0.0000000000
     31840      3366  TIP3      OH2            18.0914809026       -7.5920198453       39.0164858630  TIP3      3174            0.0000000000
     31841      3366  TIP3      H1             17.8917480650       -7.8090721465       38.0759282914  TIP3      3174            0.0000000000
     31842      3366  TIP3      H2             18.2135713064       -6.6111852552       38.9479922623  TIP3      3174            0.0000000000
     31843      3367  TIP3      OH2             8.7192090494        0.4059630158       41.5151479208  TIP3      3175            0.0000000000
     31844      3367  TIP3      H1              9.6577850021        0.3359806208       41.2233785252  TIP3      3175            0.0000000000
     31845      3367  TIP3      H2              8.3850972331        1.0597063232       40.8847234047  TIP3      3175            0.0000000000
     31846      3368  TIP3      OH2             1.9631640858       -4.5351564034       40.3166676120  TIP3      3176            0.0000000000
     31847      3368  TIP3      H1              2.9481118032       -4.6031373034       40.3216398286  TIP3      3176            0.0000000000
     31848      3368  TIP3      H2              1.7433938797       -5.0947204268       39.5508090592  TIP3      3176            0.0000000000
     31849      3369  TIP3      OH2            19.4979566883       -8.7614009729       40.9981406263  TIP3      3177            0.0000000000
     31850      3369  TIP3      H1             18.9950041842       -8.5097412846       40.1863738363  TIP3      3177            0.0000000000
     31851      3369  TIP3      H2             19.3347073839       -7.9574867306       41.5356923204  TIP3      3177            0.0000000000
     31852      3370  TIP3      OH2            17.6213656365      -11.7259893941       39.5945571027  TIP3      3178            0.0000000000
     31853      3370  TIP3      H1             17.8821833079      -11.2359891949       38.8007129633  TIP3      3178            0.0000000000
     31854      3370  TIP3      H2             17.0805608840      -12.4247882049       39.1846250806  TIP3      3178            0.0000000000
     31855      3371  TIP3      OH2            16.9581658385      -14.4281145466       38.8262862139  TIP3      3179            0.0000000000
     31856      3371  TIP3      H1             17.6378548728      -14.7887688045       39.4415736546  TIP3      3179            0.0000000000
     31857      3371  TIP3      H2             16.2343043581      -14.2629552951       39.4459486383  TIP3      3179            0.0000000000
     31858      3372  TIP3      OH2            18.9461298070      -15.4482389532       40.4943121382  TIP3      3180            0.0000000000
     31859      3372  TIP3      H1             19.3004932813      -16.0659964157       39.8057697862  TIP3      3180            0.0000000000
     31860      3372  TIP3      H2             19.7426357731      -15.2143002994       41.0082478607  TIP3      3180            0.0000000000
     31861      3373  TIP3      OH2             2.8174847931      -17.0315460039       41.3061882683  TIP3      3181            0.0000000000
     31862      3373  TIP3      H1              2.8050594101      -16.3098233304       40.6471750757  TIP3      3181            0.0000000000
     31863      3373  TIP3      H2              3.1737517764      -16.5438673458       42.0704546374  TIP3      3181            0.0000000000
     31864      3374  TIP3      OH2             3.9814412590      -15.1674436835       39.8416082233  TIP3      3182            0.0000000000
     31865      3374  TIP3      H1              4.5682014313      -15.7332352714       39.2918354793  TIP3      3182            0.0000000000
     31866      3374  TIP3      H2              4.5162926708      -15.0865356510       40.6616114902  TIP3      3182            0.0000000000
     31867      3375  TIP3      OH2            11.4705457419        0.0346899086       41.0554781420  TIP3      3183            0.0000000000
     31868      3375  TIP3      H1             12.4226515446        0.1879868291       40.9537599500  TIP3      3183            0.0000000000
     31869      3375  TIP3      H2             11.2955538511       -0.3848375544       40.1753755095  TIP3      3183            0.0000000000
     31870      3376  TIP3      OH2             3.7618127889       -0.1387634848       39.3715518943  TIP3      3184            0.0000000000
     31871      3376  TIP3      H1              3.5355886211        0.2225617208       40.2524978526  TIP3      3184            0.0000000000
     31872      3376  TIP3      H2              4.4057380423       -0.8367302991       39.5820270766  TIP3      3184            0.0000000000
     31873      3377  TIP3      OH2            30.2307287598      -10.0802175196       39.9630508637  TIP3      3185            0.0000000000
     31874      3377  TIP3      H1             30.6980873542       -9.5356315113       40.6305482180  TIP3      3185            0.0000000000
     31875      3377  TIP3      H2             30.9030514112      -10.7664935758       39.8155600209  TIP3      3185            0.0000000000
     31876      3378  TIP3      OH2            32.3118279221       -8.9644748976       41.4234203238  TIP3      3186            0.0000000000
     31877      3378  TIP3      H1             32.8557640073       -8.8944238794       42.2229815621  TIP3      3186            0.0000000000
     31878      3378  TIP3      H2             32.9252592017       -8.6368909571       40.7219426150  TIP3      3186            0.0000000000
     31879      3379  TIP3      OH2            35.9921922091      -16.9126145640       41.7082864610  TIP3      3187            0.0000000000
     31880      3379  TIP3      H1             35.1770448592      -16.5132260029       41.3835744992  TIP3      3187            0.0000000000
     31881      3379  TIP3      H2             36.2720678784      -17.4937119527       40.9860453267  TIP3      3187            0.0000000000
     31882      3380  TIP3      OH2            33.3297499049       -0.5178582871       40.7438686732  TIP3      3188            0.0000000000
     31883      3380  TIP3      H1             33.4791426716       -1.0911037764       39.9568837250  TIP3      3188            0.0000000000
     31884      3380  TIP3      H2             33.7528895369       -1.0862587100       41.4295960184  TIP3      3188            0.0000000000
     31885      3381  TIP3      OH2            34.1119074352       -7.7884897209       39.8954757782  TIP3      3189            0.0000000000
     31886      3381  TIP3      H1             33.8234784721       -7.6289646693       38.9621294601  TIP3      3189            0.0000000000
     31887      3381  TIP3      H2             34.4513644472       -6.9096995126       40.1136854286  TIP3      3189            0.0000000000
     31888      3382  TIP3      OH2            30.0838122888      -14.3966403433       40.2297397602  TIP3      3190            0.0000000000
     31889      3382  TIP3      H1             29.6220034874      -13.9982660500       40.9755918196  TIP3      3190            0.0000000000
     31890      3382  TIP3      H2             29.4447129456      -15.0308500887       39.8719518679  TIP3      3190            0.0000000000
     31891      3383  TIP3      OH2            26.2357782063      -13.8936412196       39.0970927062  TIP3      3191            0.0000000000
     31892      3383  TIP3      H1             25.7655356930      -14.1167668532       39.9371427332  TIP3      3191            0.0000000000
     31893      3383  TIP3      H2             25.5190824227      -13.5455461706       38.5466489822  TIP3      3191            0.0000000000
     31894      3384  TIP3      OH2            20.8465887412      -13.9181402337       41.6879733148  TIP3      3192            0.0000000000
     31895      3384  TIP3      H1             21.5110698463      -13.6777604764       41.0229287423  TIP3      3192            0.0000000000
     31896      3384  TIP3      H2             20.2664303839      -13.1357491987       41.6991663691  TIP3      3192            0.0000000000
     31897      3385  TIP3      OH2            25.4177040606      -10.8550958815       40.6291833321  TIP3      3193            0.0000000000
     31898      3385  TIP3      H1             25.0205631570      -11.3507878806       39.8900509682  TIP3      3193            0.0000000000
     31899      3385  TIP3      H2             26.1353115658      -10.4071008896       40.1415687439  TIP3      3193            0.0000000000
     31900      3386  TIP3      OH2            32.5870557159      -13.5572320696       40.2743608790  TIP3      3194            0.0000000000
     31901      3386  TIP3      H1             31.6217520932      -13.7563420102       40.2871661613  TIP3      3194            0.0000000000
     31902      3386  TIP3      H2             32.7205548115      -13.0246787835       41.0802397005  TIP3      3194            0.0000000000
     31903      3387  TIP3      OH2            33.2016784663      -11.5680606966       42.1496265027  TIP3      3195            0.0000000000
     31904      3387  TIP3      H1             34.0329680933      -12.0210152566       41.9061235100  TIP3      3195            0.0000000000
     31905      3387  TIP3      H2             33.0216118327      -10.9575138047       41.4116766414  TIP3      3195            0.0000000000
     31906      3388  TIP3      OH2            30.4878994294       -4.8447611279       41.6101844023  TIP3      3196            0.0000000000
     31907      3388  TIP3      H1             29.9565211261       -4.0349794880       41.7786635638  TIP3      3196            0.0000000000
     31908      3388  TIP3      H2             29.9274400905       -5.5435656731       41.9699227539  TIP3      3196            0.0000000000
     31909      3389  TIP3      OH2            22.2283744178       -8.3057750489       39.9814335091  TIP3      3197            0.0000000000
     31910      3389  TIP3      H1             22.6533287539       -7.6422509152       40.5671204587  TIP3      3197            0.0000000000
     31911      3389  TIP3      H2             21.3527841840       -7.8941328349       39.8986172422  TIP3      3197            0.0000000000
     31912      3390  TIP3      OH2            33.9207080097       -4.9572259952       40.5027804627  TIP3      3198            0.0000000000
     31913      3390  TIP3      H1             33.6575639608       -4.4021672200       41.2501115627  TIP3      3198            0.0000000000
     31914      3390  TIP3      H2             33.0705538677       -5.1159534595       40.0292509261  TIP3      3198            0.0000000000
     31915      3391  TIP3      OH2            27.9707994429       -3.6858805795       38.8724660938  TIP3      3199            0.0000000000
     31916      3391  TIP3      H1             27.6152497099       -4.1534703760       38.1061060564  TIP3      3199            0.0000000000
     31917      3391  TIP3      H2             27.5033512538       -4.1698394850       39.5912427147  TIP3      3199            0.0000000000
     31918      3392  TIP3      OH2            26.5876534788       -4.3618952432       41.1655691095  TIP3      3200            0.0000000000
     31919      3392  TIP3      H1             27.3250101073       -4.6286570527       41.7333107754  TIP3      3200            0.0000000000
     31920      3392  TIP3      H2             26.3578331648       -3.4951568915       41.5801498252  TIP3      3200            0.0000000000
     31921      3393  TIP3      OH2            22.9369444809       -6.8249837489       42.1375358431  TIP3      3201            0.0000000000
     31922      3393  TIP3      H1             22.7598218173       -7.3737879806       42.9157682748  TIP3      3201            0.0000000000
     31923      3393  TIP3      H2             23.8754617279       -6.6061660555       42.3126998260  TIP3      3201            0.0000000000
     31924      3394  TIP3      OH2            28.9637584517       -2.6250738593       41.8335609288  TIP3      3202            0.0000000000
     31925      3394  TIP3      H1             28.0446464506       -2.3333585133       41.6549336353  TIP3      3202            0.0000000000
     31926      3394  TIP3      H2             29.4955733335       -1.8829178300       41.4740551137  TIP3      3202            0.0000000000
     31927      3395  TIP3      OH2            26.3589764966       -1.9640121252       42.3310088030  TIP3      3203            0.0000000000
     31928      3395  TIP3      H1             26.2144438088       -1.1977094475       41.7403037398  TIP3      3203            0.0000000000
     31929      3395  TIP3      H2             26.8582941003       -1.5386928403       43.0397303592  TIP3      3203            0.0000000000
     31930      3396  TIP3      OH2            25.0291093977      -14.7800654650       41.2691473370  TIP3      3204            0.0000000000
     31931      3396  TIP3      H1             25.6624368198      -14.3517145863       41.8973914486  TIP3      3204            0.0000000000
     31932      3396  TIP3      H2             25.4052389480      -15.6703059285       41.1587561960  TIP3      3204            0.0000000000
     31933      3397  TIP3      OH2            23.4743077987       -4.3292220430       40.2513005256  TIP3      3205            0.0000000000
     31934      3397  TIP3      H1             24.0426166329       -3.8798123682       40.8889884251  TIP3      3205            0.0000000000
     31935      3397  TIP3      H2             24.1312893262       -4.9198048855       39.8481577475  TIP3      3205            0.0000000000
     31936      3398  TIP3      OH2            21.9194698723      -11.6273833580       39.2929310467  TIP3      3206            0.0000000000
     31937      3398  TIP3      H1             22.4386349603      -11.1464795700       38.6081525082  TIP3      3206            0.0000000000
     31938      3398  TIP3      H2             21.1196169861      -11.8757602106       38.8061754901  TIP3      3206            0.0000000000
     31939      3399  TIP3      OH2            29.9721940752       -1.4702490386       38.8554564713  TIP3      3207            0.0000000000
     31940      3399  TIP3      H1             29.4228873442       -2.2841599251       38.8949852739  TIP3      3207            0.0000000000
     31941      3399  TIP3      H2             30.7636909339       -1.8322305068       38.4025247910  TIP3      3207            0.0000000000
     31942      3400  TIP3      OH2            34.2035461359       -2.2492325190       38.8826703630  TIP3      3208            0.0000000000
     31943      3400  TIP3      H1             34.6280937715       -2.8300809995       39.5335933987  TIP3      3208            0.0000000000
     31944      3400  TIP3      H2             34.9654764225       -2.0509783784       38.2816053465  TIP3      3208            0.0000000000
     31945      3401  TIP3      OH2            25.4855766184       -6.4717394308       38.7317576920  TIP3      3209            0.0000000000
     31946      3401  TIP3      H1             25.9583866454       -6.6622805443       39.5621634569  TIP3      3209            0.0000000000
     31947      3401  TIP3      H2             26.1795260400       -6.6136600623       38.0551771015  TIP3      3209            0.0000000000
     31948      3402  TIP3      OH2            31.3008784305       -5.1500967996       39.0078160395  TIP3      3210            0.0000000000
     31949      3402  TIP3      H1             30.9607756263       -5.1124474677       39.9299950011  TIP3      3210            0.0000000000
     31950      3402  TIP3      H2             30.9317433276       -6.0193573254       38.6995316384  TIP3      3210            0.0000000000
     31951      3403  TIP3      OH2            26.4574485996       -8.0430382534       41.0520557037  TIP3      3211            0.0000000000
     31952      3403  TIP3      H1             26.0214784383       -8.6623261774       41.6593439097  TIP3      3211            0.0000000000
     31953      3403  TIP3      H2             26.9454619975       -8.6339845279       40.4418929625  TIP3      3211            0.0000000000
     31954      3404  TIP3      OH2            27.6763892491       -9.7218228353       39.4009728661  TIP3      3212            0.0000000000
     31955      3404  TIP3      H1             27.5902279523       -9.4593410996       38.4609732783  TIP3      3212            0.0000000000
     31956      3404  TIP3      H2             28.6525100123       -9.8561641741       39.4734773316  TIP3      3212            0.0000000000
     31957      3405  TIP3      OH2            27.5797263239        0.3881914371       41.3159117561  TIP3      3213            0.0000000000
     31958      3405  TIP3      H1             28.5030318639        0.2493204906       41.5920643379  TIP3      3213            0.0000000000
     31959      3405  TIP3      H2             27.7000884047        0.9855064469       40.5574151670  TIP3      3213            0.0000000000
     31960      3406  TIP3      OH2            20.7766053664       -4.7178848450       40.3068187327  TIP3      3214            0.0000000000
     31961      3406  TIP3      H1             21.7584381738       -4.6067312408       40.3058709439  TIP3      3214            0.0000000000
     31962      3406  TIP3      H2             20.6605129960       -5.3100619750       39.5395659378  TIP3      3214            0.0000000000
     31963      3407  TIP3      OH2            36.3161020851      -11.7366093660       39.6624801988  TIP3      3215            0.0000000000
     31964      3407  TIP3      H1             36.3120238752      -10.8567321838       39.2577631743  TIP3      3215            0.0000000000
     31965      3407  TIP3      H2             36.0625143061      -12.3098263010       38.9054903010  TIP3      3215            0.0000000000
     31966      3408  TIP3      OH2            35.9011741656      -14.3753118577       38.7548478144  TIP3      3216            0.0000000000
     31967      3408  TIP3      H1             36.0186381564      -14.5661408641       39.6934601272  TIP3      3216            0.0000000000
     31968      3408  TIP3      H2             34.9502592451      -14.5314382628       38.6226520527  TIP3      3216            0.0000000000
     31969      3409  TIP3      OH2            21.6070537335      -17.0120562334       41.3050276843  TIP3      3217            0.0000000000
     31970      3409  TIP3      H1             21.5894434179      -16.2570359466       40.6878613451  TIP3      3217            0.0000000000
     31971      3409  TIP3      H2             22.0568079870      -16.6039861181       42.0678768781  TIP3      3217            0.0000000000
     31972      3410  TIP3      OH2            22.8413949602      -15.1187927805       39.7959659036  TIP3      3218            0.0000000000
     31973      3410  TIP3      H1             23.4282723737      -15.6929852248       39.2644114000  TIP3      3218            0.0000000000
     31974      3410  TIP3      H2             23.4156234094      -14.9184242547       40.5720231543  TIP3      3218            0.0000000000
     31975      3411  TIP3      OH2            30.4061415899       -0.3050240682       41.1160783387  TIP3      3219            0.0000000000
     31976      3411  TIP3      H1             31.3540026840       -0.0912857765       41.0250181112  TIP3      3219            0.0000000000
     31977      3411  TIP3      H2             30.1929675653       -0.5418315345       40.1747479205  TIP3      3219            0.0000000000
     31978      3412  TIP3      OH2            22.6670811989       -0.2767277459       39.2520878429  TIP3      3220            0.0000000000
     31979      3412  TIP3      H1             22.5366735018       -0.0156261914       40.1820081519  TIP3      3220            0.0000000000
     31980      3412  TIP3      H2             23.3616873226       -0.9639928615       39.3184038068  TIP3      3220            0.0000000000
     31981      3413  TIP3      OH2           -26.2138997166        9.1506107784       40.2117529733  TIP3      3221            0.0000000000
     31982      3413  TIP3      H1            -25.2772170135        9.0765105828       40.4809670610  TIP3      3221            0.0000000000
     31983      3413  TIP3      H2            -26.2482313846        8.3841511911       39.6175222758  TIP3      3221            0.0000000000
     31984      3414  TIP3      OH2           -23.8467687757       10.0346119237       41.5249163595  TIP3      3222            0.0000000000
     31985      3414  TIP3      H1            -23.5674438495        9.3692067859       42.1849384124  TIP3      3222            0.0000000000
     31986      3414  TIP3      H2            -23.0202486105       10.1868849632       40.9863044361  TIP3      3222            0.0000000000
     31987      3415  TIP3      OH2           -20.1583911000        1.4816847355       42.0839642518  TIP3      3223            0.0000000000
     31988      3415  TIP3      H1            -20.9818556768        1.4485220974       41.5896373537  TIP3      3223            0.0000000000
     31989      3415  TIP3      H2            -19.7070052565        2.2642801300       41.6875139180  TIP3      3223            0.0000000000
     31990      3416  TIP3      OH2           -18.8083536733       16.0031333948       39.7135266845  TIP3      3224            0.0000000000
     31991      3416  TIP3      H1            -18.7071304348       16.9391148649       39.9932810500  TIP3      3224            0.0000000000
     31992      3416  TIP3      H2            -18.0106879604       15.6365136599       40.1447402856  TIP3      3224            0.0000000000
     31993      3417  TIP3      OH2           -23.3791833668       18.5418636595       41.1244349904  TIP3      3225            0.0000000000
     31994      3417  TIP3      H1            -22.6312581394       17.9026661778       41.1017961950  TIP3      3225            0.0000000000
     31995      3417  TIP3      H2            -23.4408761838       18.6636617181       42.1045940090  TIP3      3225            0.0000000000
     31996      3418  TIP3      OH2           -22.0107761175       10.9351122258       39.9714848867  TIP3      3226            0.0000000000
     31997      3418  TIP3      H1            -22.4269526804       11.1343980296       39.0944406630  TIP3      3226            0.0000000000
     31998      3418  TIP3      H2            -21.0721286707       11.1209099502       39.7637048244  TIP3      3226            0.0000000000
     31999      3419  TIP3      OH2           -26.5791888838        5.0825344061       40.0586870038  TIP3      3227            0.0000000000
     32000      3419  TIP3      H1            -27.2963880897        5.1050126170       40.7076925642  TIP3      3227            0.0000000000
     32001      3419  TIP3      H2            -26.5134961342        4.1474845308       39.8273189750  TIP3      3227            0.0000000000
     32002      3420  TIP3      OH2           -30.3357150033        4.9479705531       38.9820307161  TIP3      3228            0.0000000000
     32003      3420  TIP3      H1            -30.6382422432        4.6711442458       39.8787080853  TIP3      3228            0.0000000000
     32004      3420  TIP3      H2            -31.2086210090        5.0739495643       38.5936193517  TIP3      3228            0.0000000000
     32005      3421  TIP3      OH2           -35.7284709604        5.5387909943       41.3084466640  TIP3      3229            0.0000000000
     32006      3421  TIP3      H1            -34.8986768333        5.4622576849       40.7945095994  TIP3      3229            0.0000000000
     32007      3421  TIP3      H2            -36.3369615842        5.9591922145       40.6738673942  TIP3      3229            0.0000000000
     32008      3422  TIP3      OH2           -31.3408321273        7.3319215821       40.5770718602  TIP3      3230            0.0000000000
     32009      3422  TIP3      H1            -32.0639034421        7.1149152030       39.9743691314  TIP3      3230            0.0000000000
     32010      3422  TIP3      H2            -30.6801769984        7.6712119980       39.9553124706  TIP3      3230            0.0000000000
     32011      3423  TIP3      OH2           -24.0024974094        5.3860161485       40.5033793307  TIP3      3231            0.0000000000
     32012      3423  TIP3      H1            -24.9883437525        5.4460633372       40.5833519042  TIP3      3231            0.0000000000
     32013      3423  TIP3      H2            -23.6974125966        5.9051175785       41.2721122215  TIP3      3231            0.0000000000
     32014      3424  TIP3      OH2           -23.3879523507        7.4697708393       42.2011495407  TIP3      3232            0.0000000000
     32015      3424  TIP3      H1            -22.6746079620        7.2210896975       42.8327869393  TIP3      3232            0.0000000000
     32016      3424  TIP3      H2            -22.8828480407        7.7280311555       41.4148120530  TIP3      3232            0.0000000000
     32017      3425  TIP3      OH2           -26.6333558383       13.8825953591       41.6107278002  TIP3      3233            0.0000000000
     32018      3425  TIP3      H1            -26.4205356414       14.7961351987       41.8531607692  TIP3      3233            0.0000000000
     32019      3425  TIP3      H2            -27.5922233156       13.9980353362       41.5021397981  TIP3      3233            0.0000000000
     32020      3426  TIP3      OH2           -18.5214135552        7.2628013368       42.0859572887  TIP3      3234            0.0000000000
     32021      3426  TIP3      H1            -18.9872060345        6.9298687085       41.2901136208  TIP3      3234            0.0000000000
     32022      3426  TIP3      H2            -18.3547381130        8.1807185545       41.8002558865  TIP3      3234            0.0000000000
     32023      3427  TIP3      OH2           -35.1101488243        9.9159422704       40.2672482393  TIP3      3235            0.0000000000
     32024      3427  TIP3      H1            -34.5544983255       10.5022176138       40.8415964424  TIP3      3235            0.0000000000
     32025      3427  TIP3      H2            -35.9802167901       10.0121883442       40.6704031778  TIP3      3235            0.0000000000
     32026      3428  TIP3      OH2           -22.5061199237       14.2174585146       40.4022789914  TIP3      3236            0.0000000000
     32027      3428  TIP3      H1            -22.5859406129       14.5234842110       41.3174215795  TIP3      3236            0.0000000000
     32028      3428  TIP3      H2            -23.4040536685       13.9032614406       40.1831839986  TIP3      3236            0.0000000000
     32029      3429  TIP3      OH2           -18.3906507060       18.4520679627       40.6470101127  TIP3      3237            0.0000000000
     32030      3429  TIP3      H1            -17.6794583354       19.0965095870       40.5461066992  TIP3      3237            0.0000000000
     32031      3429  TIP3      H2            -19.0094054852       18.9626437606       41.1995687795  TIP3      3237            0.0000000000
     32032      3430  TIP3      OH2           -28.4965464681       15.2085953060       38.6815693989  TIP3      3238            0.0000000000
     32033      3430  TIP3      H1            -28.8502009689       14.8756089249       37.8413126145  TIP3      3238            0.0000000000
     32034      3430  TIP3      H2            -28.9540876660       14.6175746406       39.2984163798  TIP3      3238            0.0000000000
     32035      3431  TIP3      OH2           -30.0808335556       14.5787199771       41.3383650464  TIP3      3239            0.0000000000
     32036      3431  TIP3      H1            -29.9346980586       14.4112537030       42.2828722330  TIP3      3239            0.0000000000
     32037      3431  TIP3      H2            -30.1294409208       15.5558089434       41.3795326347  TIP3      3239            0.0000000000
     32038      3432  TIP3      OH2           -33.8571852978       11.7775167123       41.6553286715  TIP3      3240            0.0000000000
     32039      3432  TIP3      H1            -33.1551988991       11.4228400039       42.2253837916  TIP3      3240            0.0000000000
     32040      3432  TIP3      H2            -33.5311246518       12.6891793559       41.5025564262  TIP3      3240            0.0000000000
     32041      3433  TIP3      OH2           -27.4626529034       16.5060833308       41.4553771397  TIP3      3241            0.0000000000
     32042      3433  TIP3      H1            -28.3807211162       16.7639382910       41.7240562056  TIP3      3241            0.0000000000
     32043      3433  TIP3      H2            -27.0818121581       17.4042993065       41.3561317939  TIP3      3241            0.0000000000
     32044      3434  TIP3      OH2           -29.9754784165       17.1335327338       42.1337255231  TIP3      3242            0.0000000000
     32045      3434  TIP3      H1            -29.8394388427       17.8393903918       41.4598470656  TIP3      3242            0.0000000000
     32046      3434  TIP3      H2            -30.1658519828       17.6982099218       42.9018282522  TIP3      3242            0.0000000000
     32047      3435  TIP3      OH2           -31.3994101925        4.0170201363       41.2799943895  TIP3      3243            0.0000000000
     32048      3435  TIP3      H1            -31.0322598299        4.7083257653       41.8865186287  TIP3      3243            0.0000000000
     32049      3435  TIP3      H2            -30.7439610004        3.3048777754       41.3337014081  TIP3      3243            0.0000000000
     32050      3436  TIP3      OH2           -32.6764173810       14.1022088055       40.6705033152  TIP3      3244            0.0000000000
     32051      3436  TIP3      H1            -31.8300698251       14.3610277809       41.0916644002  TIP3      3244            0.0000000000
     32052      3436  TIP3      H2            -32.3168773953       13.7570557921       39.8334152222  TIP3      3244            0.0000000000
     32053      3437  TIP3      OH2           -34.3909004892        7.3737640689       39.5907669490  TIP3      3245            0.0000000000
     32054      3437  TIP3      H1            -34.2407443774        8.1450544907       40.1517809087  TIP3      3245            0.0000000000
     32055      3437  TIP3      H2            -35.3376089659        7.2362048935       39.7541955707  TIP3      3245            0.0000000000
     32056      3438  TIP3      OH2           -26.5527625244       17.0972534021       38.8577001073  TIP3      3246            0.0000000000
     32057      3438  TIP3      H1            -27.2808729031       16.5805959318       39.2789527626  TIP3      3246            0.0000000000
     32058      3438  TIP3      H2            -26.4417148396       16.4538031664       38.1395926319  TIP3      3246            0.0000000000
     32059      3439  TIP3      OH2           -21.9504433189       16.7971553671       39.0809321094  TIP3      3247            0.0000000000
     32060      3439  TIP3      H1            -21.7659750119       16.0257795101       39.6487069392  TIP3      3247            0.0000000000
     32061      3439  TIP3      H2            -21.1706482261       16.8038878799       38.4808137744  TIP3      3247            0.0000000000
     32062      3440  TIP3      OH2           -31.3716687397       12.4036362702       38.6556066674  TIP3      3248            0.0000000000
     32063      3440  TIP3      H1            -31.5197053552       11.5298386662       39.0360779764  TIP3      3248            0.0000000000
     32064      3440  TIP3      H2            -30.5614520995       12.2314278325       38.1290618490  TIP3      3248            0.0000000000
     32065      3441  TIP3      OH2           -25.2783633759       13.7148409273       39.0934431622  TIP3      3249            0.0000000000
     32066      3441  TIP3      H1            -25.9314849899       13.8750713151       39.7895150101  TIP3      3249            0.0000000000
     32067      3441  TIP3      H2            -25.6090466589       12.8536969508       38.7189941735  TIP3      3249            0.0000000000
     32068      3442  TIP3      OH2           -29.7846245507       10.9308575944       41.1986563832  TIP3      3250            0.0000000000
     32069      3442  TIP3      H1            -30.5438235381       10.4714293245       41.5809048775  TIP3      3250            0.0000000000
     32070      3442  TIP3      H2            -29.5930523895       10.3826976898       40.4024322965  TIP3      3250            0.0000000000
     32071      3443  TIP3      OH2           -29.0976209542        9.1387064685       39.2041555021  TIP3      3251            0.0000000000
     32072      3443  TIP3      H1            -29.3908395619        9.1713382208       38.2590989912  TIP3      3251            0.0000000000
     32073      3443  TIP3      H2            -28.1343208105        9.1966800328       39.0776190574  TIP3      3251            0.0000000000
     32074      3444  TIP3      OH2           -19.5744976024       11.3595372100       38.9523176077  TIP3      3252            0.0000000000
     32075      3444  TIP3      H1            -19.6714728939       10.9810695133       38.0516193692  TIP3      3252            0.0000000000
     32076      3444  TIP3      H2            -19.6853026142       12.3288146295       38.7667095173  TIP3      3252            0.0000000000
     32077      3445  TIP3      OH2           -28.9081483869       19.4110272924       41.2354291722  TIP3      3253            0.0000000000
     32078      3445  TIP3      H1            -27.9841743739       19.7121000194       41.3108376435  TIP3      3253            0.0000000000
     32079      3445  TIP3      H2            -29.1907889082       19.9343990323       40.4568032332  TIP3      3253            0.0000000000
     32080      3446  TIP3      OH2           -35.7199134902       14.7834759946       40.2627886796  TIP3      3254            0.0000000000
     32081      3446  TIP3      H1            -34.8210630473       15.1453276505       40.3350910831  TIP3      3254            0.0000000000
     32082      3446  TIP3      H2            -35.5464435816       13.9603739868       39.7669025724  TIP3      3254            0.0000000000
     32083      3447  TIP3      OH2           -18.0628729196       10.1818994420       40.9604504629  TIP3      3255            0.0000000000
     32084      3447  TIP3      H1            -18.5146477178       10.4948414576       40.1511558704  TIP3      3255            0.0000000000
     32085      3447  TIP3      H2            -18.2528470834       10.9074060550       41.5910375332  TIP3      3255            0.0000000000
     32086      3448  TIP3      OH2           -20.0764738945        7.1758914095       39.5421034802  TIP3      3256            0.0000000000
     32087      3448  TIP3      H1            -19.7916574662        7.7053954738       38.7815638195  TIP3      3256            0.0000000000
     32088      3448  TIP3      H2            -20.3906291345        6.3671995226       39.1104984493  TIP3      3256            0.0000000000
     32089      3449  TIP3      OH2           -20.7026301668        4.4044372995       39.0401913982  TIP3      3257            0.0000000000
     32090      3449  TIP3      H1            -20.0607076608        4.0336358267       39.6881883177  TIP3      3257            0.0000000000
     32091      3449  TIP3      H2            -21.4934839394        4.4787849479       39.5892212966  TIP3      3257            0.0000000000
     32092      3450  TIP3      OH2           -18.7355553307        3.2458793600       40.6917863459  TIP3      3258            0.0000000000
     32093      3450  TIP3      H1            -18.4713548831        2.7349365286       39.8832233747  TIP3      3258            0.0000000000
     32094      3450  TIP3      H2            -17.8842995139        3.6655276516       40.9363244408  TIP3      3258            0.0000000000
     32095      3451  TIP3      OH2           -34.9226993522        1.9373828318       41.0108573886  TIP3      3259            0.0000000000
     32096      3451  TIP3      H1            -34.6689923637        2.8531935473       40.7522930679  TIP3      3259            0.0000000000
     32097      3451  TIP3      H2            -35.2525545132        2.1026818138       41.9133248536  TIP3      3259            0.0000000000
     32098      3452  TIP3      OH2           -33.6425565909        4.0305913206       39.9518516471  TIP3      3260            0.0000000000
     32099      3452  TIP3      H1            -33.0401268655        3.4732116524       39.4197235246  TIP3      3260            0.0000000000
     32100      3452  TIP3      H2            -33.0908787003        4.1738038110       40.7533923915  TIP3      3260            0.0000000000
     32101      3453  TIP3      OH2           -26.2193150558       18.9143990384       40.7550915841  TIP3      3261            0.0000000000
     32102      3453  TIP3      H1            -25.3329791629       19.2281097332       40.5515999740  TIP3      3261            0.0000000000
     32103      3453  TIP3      H2            -26.4097000918       18.3313084265       39.9868003475  TIP3      3261            0.0000000000
     32104      3454  TIP3      OH2           -34.0969964855       18.6755117556       39.4938090496  TIP3      3262            0.0000000000
     32105      3454  TIP3      H1            -34.5000630452       19.3535821813       40.0881328726  TIP3      3262            0.0000000000
     32106      3454  TIP3      H2            -33.3541234135       18.4080704964       40.0543987409  TIP3      3262            0.0000000000
     32107      3455  TIP3      OH2            -7.4849671839        9.3078501633       39.9708600956  TIP3      3263            0.0000000000
     32108      3455  TIP3      H1             -6.7913884056        9.6434723335       40.5625896168  TIP3      3263            0.0000000000
     32109      3455  TIP3      H2             -7.0138483333        8.5085126817       39.6674665291  TIP3      3263            0.0000000000
     32110      3456  TIP3      OH2            -5.1007795319        9.7959378640       41.0782288733  TIP3      3264            0.0000000000
     32111      3456  TIP3      H1             -5.5088255167       10.3750233381       41.7385843514  TIP3      3264            0.0000000000
     32112      3456  TIP3      H2             -4.5229549623       10.4107120974       40.5586992834  TIP3      3264            0.0000000000
     32113      3457  TIP3      OH2            -1.2109376572        1.5017099720       42.0829612046  TIP3      3265            0.0000000000
     32114      3457  TIP3      H1             -2.0493110060        1.4206416163       41.6077459856  TIP3      3265            0.0000000000
     32115      3457  TIP3      H2             -0.7841717141        2.2436046644       41.5998924447  TIP3      3265            0.0000000000
     32116      3458  TIP3      OH2            -0.1308725073       15.9853383899       39.6802198772  TIP3      3266            0.0000000000
     32117      3458  TIP3      H1             -0.0748046574       16.9390120904       39.8981933516  TIP3      3266            0.0000000000
     32118      3458  TIP3      H2              0.6197263955       15.6843775724       40.2254132420  TIP3      3266            0.0000000000
     32119      3459  TIP3      OH2            -4.2983268034       18.2575510109       40.8178447945  TIP3      3267            0.0000000000
     32120      3459  TIP3      H1             -4.0197346597       17.6849496803       40.0676187417  TIP3      3267            0.0000000000
     32121      3459  TIP3      H2             -3.8395413821       17.7739913438       41.5447609886  TIP3      3267            0.0000000000
     32122      3460  TIP3      OH2            -3.2811127677       11.4509040493       40.0808051980  TIP3      3268            0.0000000000
     32123      3460  TIP3      H1             -3.5611283922       11.6943125392       39.1756343528  TIP3      3268            0.0000000000
     32124      3460  TIP3      H2             -2.3483784224       11.2102736353       39.8838200015  TIP3      3268            0.0000000000
     32125      3461  TIP3      OH2            -7.7591039625        4.4610973474       40.4780652701  TIP3      3269            0.0000000000
     32126      3461  TIP3      H1             -8.4912191938        5.0126743271       40.7897316198  TIP3      3269            0.0000000000
     32127      3461  TIP3      H2             -8.1947702001        3.7515317041       40.0036753904  TIP3      3269            0.0000000000
     32128      3462  TIP3      OH2           -11.3856660841        5.1012881243       39.1726488198  TIP3      3270            0.0000000000
     32129      3462  TIP3      H1            -11.9335872231        4.6083251266       39.8328329641  TIP3      3270            0.0000000000
     32130      3462  TIP3      H2            -12.0280142713        5.7795416493       38.8708377073  TIP3      3270            0.0000000000
     32131      3463  TIP3      OH2           -16.8973989799        5.0546696967       41.5432180937  TIP3      3271            0.0000000000
     32132      3463  TIP3      H1            -16.3060182223        5.6009880204       40.9816018470  TIP3      3271            0.0000000000
     32133      3463  TIP3      H2            -17.4503421380        5.7779399512       41.8970397407  TIP3      3271            0.0000000000
     32134      3464  TIP3      OH2           -12.4769576112        7.8461578499       40.4933553461  TIP3      3272            0.0000000000
     32135      3464  TIP3      H1            -12.7914568067        7.3447179937       39.7223016420  TIP3      3272            0.0000000000
     32136      3464  TIP3      H2            -11.7890353717        8.3843715957       40.0634034132  TIP3      3272            0.0000000000
     32137      3465  TIP3      OH2            -5.2020134842        5.4321152818       40.4223079073  TIP3      3273            0.0000000000
     32138      3465  TIP3      H1             -6.1643790732        5.3336521922       40.6060838715  TIP3      3273            0.0000000000
     32139      3465  TIP3      H2             -4.8959352392        6.0059041314       41.1619265709  TIP3      3273            0.0000000000
     32140      3466  TIP3      OH2            -4.3765621731        7.3462879026       42.0789180134  TIP3      3274            0.0000000000
     32141      3466  TIP3      H1             -3.4838930891        7.4516808901       42.4474078166  TIP3      3274            0.0000000000
     32142      3466  TIP3      H2             -4.4876798871        8.1656826142       41.5425441515  TIP3      3274            0.0000000000
     32143      3467  TIP3      OH2            -6.9895015853       13.6795037562       41.6881204916  TIP3      3275            0.0000000000
     32144      3467  TIP3      H1             -7.4321742553       14.5493141850       41.7513814044  TIP3      3275            0.0000000000
     32145      3467  TIP3      H2             -7.7287719786       13.0910880437       41.8844432320  TIP3      3275            0.0000000000
     32146      3468  TIP3      OH2             0.2976427669        7.3251436902       41.9570093580  TIP3      3276            0.0000000000
     32147      3468  TIP3      H1             -0.1951580377        6.9668673995       41.1865655951  TIP3      3276            0.0000000000
     32148      3468  TIP3      H2              0.4302133113        8.2370499600       41.6279396576  TIP3      3276            0.0000000000
     32149      3469  TIP3      OH2           -15.3429892213       10.3868314513       39.9994862292  TIP3      3277            0.0000000000
     32150      3469  TIP3      H1            -15.1135748493       11.1018288096       40.6334147975  TIP3      3277            0.0000000000
     32151      3469  TIP3      H2            -16.2488275753       10.1709541259       40.3043857255  TIP3      3277            0.0000000000
     32152      3470  TIP3      OH2            -3.4535939932       14.3598310317       40.4401719337  TIP3      3278            0.0000000000
     32153      3470  TIP3      H1             -3.5542322837       14.5676179282       41.3818998735  TIP3      3278            0.0000000000
     32154      3470  TIP3      H2             -4.3182213897       13.9552707167       40.2457293356  TIP3      3278            0.0000000000
     32155      3471  TIP3      OH2             0.2883917401       18.4396895798       40.5467986973  TIP3      3279            0.0000000000
     32156      3471  TIP3      H1              1.0324468073       19.0231221787       40.7260493254  TIP3      3279            0.0000000000
     32157      3471  TIP3      H2             -0.4292499017       18.9872007171       40.9249141377  TIP3      3279            0.0000000000
     32158      3472  TIP3      OH2            -9.8023042368       15.2995338672       38.8241572023  TIP3      3280            0.0000000000
     32159      3472  TIP3      H1            -10.1415815794       14.7382845991       38.1068332763  TIP3      3280            0.0000000000
     32160      3472  TIP3      H2            -10.2191634378       14.8749097818       39.6098826273  TIP3      3280            0.0000000000
     32161      3473  TIP3      OH2           -11.0025997011       14.5774200714       41.1532409709  TIP3      3281            0.0000000000
     32162      3473  TIP3      H1            -10.9406518440       14.0513009128       41.9662548792  TIP3      3281            0.0000000000
     32163      3473  TIP3      H2            -11.0587502630       15.4787629722       41.5486578704  TIP3      3281            0.0000000000
     32164      3474  TIP3      OH2           -14.6065337963       12.0523920968       42.0030596939  TIP3      3282            0.0000000000
     32165      3474  TIP3      H1            -14.6193569980       11.2416601896       42.5394093543  TIP3      3282            0.0000000000
     32166      3474  TIP3      H2            -13.6622538474       12.2328236788       41.9325846362  TIP3      3282            0.0000000000
     32167      3475  TIP3      OH2            -8.5257440087       16.0859407647       41.8093596777  TIP3      3283            0.0000000000
     32168      3475  TIP3      H1             -9.4672506462       16.3510795356       41.7816818985  TIP3      3283            0.0000000000
     32169      3475  TIP3      H2             -8.1084265475       16.8552397649       41.3861453861  TIP3      3283            0.0000000000
     32170      3476  TIP3      OH2           -11.1225358273       16.9903725311       42.1681727979  TIP3      3284            0.0000000000
     32171      3476  TIP3      H1            -11.2228566696       17.6128140255       41.4209766806  TIP3      3284            0.0000000000
     32172      3476  TIP3      H2            -11.0561939233       17.6206533426       42.9008256432  TIP3      3284            0.0000000000
     32173      3477  TIP3      OH2           -12.5838411053        3.8914587183       41.1865549490  TIP3      3285            0.0000000000
     32174      3477  TIP3      H1            -12.6796258076        4.5214529164       41.9260277183  TIP3      3285            0.0000000000
     32175      3477  TIP3      H2            -11.6676642278        3.6227772818       41.3501450940  TIP3      3285            0.0000000000
     32176      3478  TIP3      OH2           -14.0830579251       14.6210822814       40.2900372904  TIP3      3286            0.0000000000
     32177      3478  TIP3      H1            -13.4758959829       14.9037198332       40.9898311521  TIP3      3286            0.0000000000
     32178      3478  TIP3      H2            -13.4766672735       14.1289129803       39.7105010881  TIP3      3286            0.0000000000
     32179      3479  TIP3      OH2           -15.8795874067        7.2526159374       40.0047540647  TIP3      3287            0.0000000000
     32180      3479  TIP3      H1            -15.2922952881        8.0247085601       39.9635175731  TIP3      3287            0.0000000000
     32181      3479  TIP3      H2            -16.5022889305        7.4121755629       39.2853659443  TIP3      3287            0.0000000000
     32182      3480  TIP3      OH2            -7.8967243812       17.2660082872       38.8510258339  TIP3      3288            0.0000000000
     32183      3480  TIP3      H1             -8.4520317608       16.4522648387       38.8669634039  TIP3      3288            0.0000000000
     32184      3480  TIP3      H2             -7.0980361881       16.9386745069       38.3856625491  TIP3      3288            0.0000000000
     32185      3481  TIP3      OH2            -3.3257437142       16.5256620378       38.8298787316  TIP3      3289            0.0000000000
     32186      3481  TIP3      H1             -3.2070296572       15.7301771810       39.4064470251  TIP3      3289            0.0000000000
     32187      3481  TIP3      H2             -2.4636579111       16.5483826193       38.3712148756  TIP3      3289            0.0000000000
     32188      3482  TIP3      OH2           -12.2650154248       12.6729272987       38.8784333879  TIP3      3290            0.0000000000
     32189      3482  TIP3      H1            -11.7932396331       12.5922802694       39.7225417127  TIP3      3290            0.0000000000
     32190      3482  TIP3      H2            -11.5606917638       12.3958412632       38.2460924299  TIP3      3290            0.0000000000
     32191      3483  TIP3      OH2            -6.4196820662       13.9933199093       38.9638402393  TIP3      3291            0.0000000000
     32192      3483  TIP3      H1             -6.6886409531       13.8825643843       39.9007351778  TIP3      3291            0.0000000000
     32193      3483  TIP3      H2             -6.5875322964       13.0851985909       38.6061806412  TIP3      3291            0.0000000000
     32194      3484  TIP3      OH2           -11.1625220520       10.7888030566       41.1303086874  TIP3      3292            0.0000000000
     32195      3484  TIP3      H1            -11.7574178800       10.0841591795       41.4432917799  TIP3      3292            0.0000000000
     32196      3484  TIP3      H2            -10.7796725270       10.3498002210       40.3424495843  TIP3      3292            0.0000000000
     32197      3485  TIP3      OH2           -10.1001424009        9.1407131833       39.3085727018  TIP3      3293            0.0000000000
     32198      3485  TIP3      H1            -10.1468882874        9.3051770654       38.3396386415  TIP3      3293            0.0000000000
     32199      3485  TIP3      H2             -9.1201621577        9.0913097945       39.4272505496  TIP3      3293            0.0000000000
     32200      3486  TIP3      OH2            -0.7089265933       11.1190838795       39.1739803192  TIP3      3294            0.0000000000
     32201      3486  TIP3      H1             -0.8167784994       10.8317740468       38.2367484543  TIP3      3294            0.0000000000
     32202      3486  TIP3      H2             -0.6665615904       12.1043755674       39.0588280643  TIP3      3294            0.0000000000
     32203      3487  TIP3      OH2           -10.1361073039       19.4224829112       41.5462231561  TIP3      3295            0.0000000000
     32204      3487  TIP3      H1             -9.1798298430       19.3266495929       41.3535313125  TIP3      3295            0.0000000000
     32205      3487  TIP3      H2            -10.4156862938       19.9865218172       40.8057227424  TIP3      3295            0.0000000000
     32206      3488  TIP3      OH2           -16.8706174822       13.9991718047       40.3011214495  TIP3      3296            0.0000000000
     32207      3488  TIP3      H1            -15.8858234880       14.0100878065       40.2874693757  TIP3      3296            0.0000000000
     32208      3488  TIP3      H2            -17.0844007155       13.5467052568       39.4623207605  TIP3      3296            0.0000000000
     32209      3489  TIP3      OH2             0.8549634092       10.0743771460       41.0160247039  TIP3      3297            0.0000000000
     32210      3489  TIP3      H1              0.2890870512       10.3272192159       40.2486423646  TIP3      3297            0.0000000000
     32211      3489  TIP3      H2              0.6755162828       10.8046929717       41.6284989965  TIP3      3297            0.0000000000
     32212      3490  TIP3      OH2            -1.0090485244        7.3492208218       39.5172264750  TIP3      3298            0.0000000000
     32213      3490  TIP3      H1             -1.0562766516        7.9284694114       38.7443891171  TIP3      3298            0.0000000000
     32214      3490  TIP3      H2             -1.3987447888        6.5282646028       39.1607485433  TIP3      3298            0.0000000000
     32215      3491  TIP3      OH2            -1.8930694580        4.6769676909       39.2255626531  TIP3      3299            0.0000000000
     32216      3491  TIP3      H1             -1.2352804288        4.2480846844       39.8215489640  TIP3      3299            0.0000000000
     32217      3491  TIP3      H2             -2.6449410820        4.7651005781       39.8296211840  TIP3      3299            0.0000000000
     32218      3492  TIP3      OH2             0.1485611987        3.3938949472       40.5691507369  TIP3      3300            0.0000000000
     32219      3492  TIP3      H1              0.3692308849        2.8785421542       39.7505309628  TIP3      3300            0.0000000000
     32220      3492  TIP3      H2              1.0082189111        3.8074268305       40.7984844508  TIP3      3300            0.0000000000
     32221      3493  TIP3      OH2           -16.0295908845        1.8423755282       41.3064947718  TIP3      3301            0.0000000000
     32222      3493  TIP3      H1            -15.9232918359        2.5724229924       40.6612903527  TIP3      3301            0.0000000000
     32223      3493  TIP3      H2            -15.8519200036        2.3328484494       42.1322844503  TIP3      3301            0.0000000000
     32224      3494  TIP3      OH2           -14.8475712970        3.6295350811       39.7512361788  TIP3      3302            0.0000000000
     32225      3494  TIP3      H1            -14.2368309427        3.0654412853       39.2281887968  TIP3      3302            0.0000000000
     32226      3494  TIP3      H2            -14.3101748528        3.7656493201       40.5600608554  TIP3      3302            0.0000000000
     32227      3495  TIP3      OH2            -7.4430642337       18.7044815531       41.0075202760  TIP3      3303            0.0000000000
     32228      3495  TIP3      H1             -6.5479919365       19.0445739919       40.8618975298  TIP3      3303            0.0000000000
     32229      3495  TIP3      H2             -7.6180831180       18.3017659718       40.1221608082  TIP3      3303            0.0000000000
     32230      3496  TIP3      OH2           -15.1322587247       18.5647584902       39.3013756260  TIP3      3304            0.0000000000
     32231      3496  TIP3      H1            -15.4038677827       18.9338433458       40.1602810521  TIP3      3304            0.0000000000
     32232      3496  TIP3      H2            -14.4514754913       17.9295670567       39.5793427766  TIP3      3304            0.0000000000
     32233      3497  TIP3      OH2            11.2685013400        9.3788334463       40.0955978144  TIP3      3305            0.0000000000
     32234      3497  TIP3      H1             11.9941788076        9.6532399754       40.6885501315  TIP3      3305            0.0000000000
     32235      3497  TIP3      H2             11.7143121891        8.6088745624       39.6981895020  TIP3      3305            0.0000000000
     32236      3498  TIP3      OH2            13.6162035495        9.9646752838       41.3425145953  TIP3      3306            0.0000000000
     32237      3498  TIP3      H1             13.4628293894       10.5303221544       42.1213629873  TIP3      3306            0.0000000000
     32238      3498  TIP3      H2             14.1255237313       10.5487938227       40.7366715886  TIP3      3306            0.0000000000
     32239      3499  TIP3      OH2            17.6623920311        1.4774147707       42.0531881307  TIP3      3307            0.0000000000
     32240      3499  TIP3      H1             16.8145118239        1.3102421232       41.6231511725  TIP3      3307            0.0000000000
     32241      3499  TIP3      H2             18.0129192492        2.2544629005       41.5554860293  TIP3      3307            0.0000000000
     32242      3500  TIP3      OH2            18.5746436179       15.9694706607       39.7499239817  TIP3      3308            0.0000000000
     32243      3500  TIP3      H1             18.8337098217       16.9006776673       39.9025985330  TIP3      3308            0.0000000000
     32244      3500  TIP3      H2             19.2819481256       15.5370427915       40.2557978248  TIP3      3308            0.0000000000
     32245      3501  TIP3      OH2            14.4508317646       18.2462046216       40.7453391411  TIP3      3309            0.0000000000
     32246      3501  TIP3      H1             14.7285228750       17.6408712289       40.0218917254  TIP3      3309            0.0000000000
     32247      3501  TIP3      H2             14.9211210573       17.8028777111       41.4882862143  TIP3      3309            0.0000000000
     32248      3502  TIP3      OH2            15.5356128506       11.3051330669       39.9911926768  TIP3      3310            0.0000000000
     32249      3502  TIP3      H1             15.2723640211       11.2523558989       39.0460984159  TIP3      3310            0.0000000000
     32250      3502  TIP3      H2             16.5043604843       11.3372260708       39.8884545651  TIP3      3310            0.0000000000
     32251      3503  TIP3      OH2            11.1014308989        4.5360245951       40.4714246897  TIP3      3311            0.0000000000
     32252      3503  TIP3      H1             10.3047667225        4.8508899999       40.9178924570  TIP3      3311            0.0000000000
     32253      3503  TIP3      H2             10.8032596612        3.7631408662       39.9806789028  TIP3      3311            0.0000000000
     32254      3504  TIP3      OH2             7.4526655096        5.1674631534       39.2099126120  TIP3      3312            0.0000000000
     32255      3504  TIP3      H1              6.8281554862        4.7575264182       39.8522617178  TIP3      3312            0.0000000000
     32256      3504  TIP3      H2              6.9176097370        5.9141049957       38.8596558297  TIP3      3312            0.0000000000
     32257      3505  TIP3      OH2             1.9229966788        5.2031720022       41.5574636934  TIP3      3313            0.0000000000
     32258      3505  TIP3      H1              2.4601764771        5.7503038179       40.9483249508  TIP3      3313            0.0000000000
     32259      3505  TIP3      H2              1.2545024141        5.8736926069       41.8115077109  TIP3      3313            0.0000000000
     32260      3506  TIP3      OH2             6.3262262117        7.7765185151       40.4919917164  TIP3      3314            0.0000000000
     32261      3506  TIP3      H1              6.0876385107        7.3433126842       39.6559205061  TIP3      3314            0.0000000000
     32262      3506  TIP3      H2              6.9695920492        8.4196291621       40.1571668964  TIP3      3314            0.0000000000
     32263      3507  TIP3      OH2            13.6225677079        5.5835964956       40.1052735243  TIP3      3315            0.0000000000
     32264      3507  TIP3      H1             12.7043830163        5.4041289312       40.4234331657  TIP3      3315            0.0000000000
     32265      3507  TIP3      H2             14.0289179765        6.0088395008       40.8880528566  TIP3      3315            0.0000000000
     32266      3508  TIP3      OH2            14.2956543908        7.3371496155       42.1460425974  TIP3      3316            0.0000000000
     32267      3508  TIP3      H1             14.9026146076        7.4988328381       42.8929802112  TIP3      3316            0.0000000000
     32268      3508  TIP3      H2             14.2831869743        8.1733180846       41.6388805575  TIP3      3316            0.0000000000
     32269      3509  TIP3      OH2            11.7190973861       13.7689578826       41.6884287764  TIP3      3317            0.0000000000
     32270      3509  TIP3      H1             11.2028462755       14.6051780029       41.7365044061  TIP3      3317            0.0000000000
     32271      3509  TIP3      H2             11.0734656874       13.1063508527       41.9572982262  TIP3      3317            0.0000000000
     32272      3510  TIP3      OH2            19.1518516552        7.2825551574       42.3073512475  TIP3      3318            0.0000000000
     32273      3510  TIP3      H1             19.0419162541        6.8748580723       41.4128437114  TIP3      3318            0.0000000000
     32274      3510  TIP3      H2             19.1890199987        8.2244957316       42.0694424631  TIP3      3318            0.0000000000
     32275      3511  TIP3      OH2             3.4982136119       10.0537512648       40.0460130237  TIP3      3319            0.0000000000
     32276      3511  TIP3      H1              3.7061005292       10.7939873433       40.6466336568  TIP3      3319            0.0000000000
     32277      3511  TIP3      H2              2.5915013160        9.8631466595       40.3559730835  TIP3      3319            0.0000000000
     32278      3512  TIP3      OH2            15.3834432852       14.2115090823       40.5667670355  TIP3      3320            0.0000000000
     32279      3512  TIP3      H1             15.0904049510       14.6295661180       41.3887473082  TIP3      3320            0.0000000000
     32280      3512  TIP3      H2             14.5702202104       13.7537401100       40.2948336859  TIP3      3320            0.0000000000
     32281      3513  TIP3      OH2            19.1711468826       18.4727698462       40.4529627288  TIP3      3321            0.0000000000
     32282      3513  TIP3      H1             19.9114827224       18.9918648910       40.7957573477  TIP3      3321            0.0000000000
     32283      3513  TIP3      H2             18.4253747067       19.0543177309       40.6789321686  TIP3      3321            0.0000000000
     32284      3514  TIP3      OH2             9.1563004195       15.2724860304       38.8499144753  TIP3      3322            0.0000000000
     32285      3514  TIP3      H1              8.7647391409       14.7681360539       38.1194004495  TIP3      3322            0.0000000000
     32286      3514  TIP3      H2              8.7440147992       14.8246519318       39.6242407297  TIP3      3322            0.0000000000
     32287      3515  TIP3      OH2             7.7385798028       14.6282261960       41.1663046060  TIP3      3323            0.0000000000
     32288      3515  TIP3      H1              8.0383075711       14.1932218089       41.9756096405  TIP3      3323            0.0000000000
     32289      3515  TIP3      H2              7.5738914702       15.5385197291       41.5070589541  TIP3      3323            0.0000000000
     32290      3516  TIP3      OH2             4.1270321179       11.9502055995       41.7335417751  TIP3      3324            0.0000000000
     32291      3516  TIP3      H1              4.2594325438       11.2156960440       42.3547506156  TIP3      3324            0.0000000000
     32292      3516  TIP3      H2              5.0267059255       12.2990723164       41.6233730314  TIP3      3324            0.0000000000
     32293      3517  TIP3      OH2            10.2486655574       16.1097298135       41.7440213773  TIP3      3325            0.0000000000
     32294      3517  TIP3      H1              9.3673513172       16.5264898454       41.7806457281  TIP3      3325            0.0000000000
     32295      3517  TIP3      H2             10.7268818751       16.7181457780       41.1427006873  TIP3      3325            0.0000000000
     32296      3518  TIP3      OH2             7.4759686810       16.9964491765       42.3264462651  TIP3      3326            0.0000000000
     32297      3518  TIP3      H1              7.3641229283       17.6902507711       41.6442951835  TIP3      3326            0.0000000000
     32298      3518  TIP3      H2              7.7463482234       17.5480970250       43.0724000550  TIP3      3326            0.0000000000
     32299      3519  TIP3      OH2             6.2031229174        3.9769824776       41.2257095653  TIP3      3327            0.0000000000
     32300      3519  TIP3      H1              6.3639839688        4.6510568844       41.9232189558  TIP3      3327            0.0000000000
     32301      3519  TIP3      H2              7.0718973590        3.5568135114       41.1831688945  TIP3      3327            0.0000000000
     32302      3520  TIP3      OH2             4.6954234498       14.6361065085       40.3231348508  TIP3      3328            0.0000000000
     32303      3520  TIP3      H1              5.3040938791       15.0096883584       40.9783252214  TIP3      3328            0.0000000000
     32304      3520  TIP3      H2              5.3285166234       14.1782074182       39.7472777740  TIP3      3328            0.0000000000
     32305      3521  TIP3      OH2             2.9708464603        7.2137774005       39.9654303341  TIP3      3329            0.0000000000
     32306      3521  TIP3      H1              3.5446889039        7.9959725996       40.0028244007  TIP3      3329            0.0000000000
     32307      3521  TIP3      H2              2.3211333901        7.4657494966       39.2964149828  TIP3      3329            0.0000000000
     32308      3522  TIP3      OH2            11.0966057511       17.3026147984       38.8968112762  TIP3      3330            0.0000000000
     32309      3522  TIP3      H1             10.5451811965       16.4931616258       38.8089695090  TIP3      3330            0.0000000000
     32310      3522  TIP3      H2             11.9038943734       17.0100309923       38.4263197212  TIP3      3330            0.0000000000
     32311      3523  TIP3      OH2            15.3580994034       16.5123843426       38.8673311898  TIP3      3331            0.0000000000
     32312      3523  TIP3      H1             15.6327551791       15.7845175848       39.4700733779  TIP3      3331            0.0000000000
     32313      3523  TIP3      H2             16.1506007828       16.6137475380       38.3003890293  TIP3      3331            0.0000000000
     32314      3524  TIP3      OH2             6.4516168101       12.6048019992       38.7793544896  TIP3      3332            0.0000000000
     32315      3524  TIP3      H1              6.8916908575       12.4133183799       39.6153519355  TIP3      3332            0.0000000000
     32316      3524  TIP3      H2              7.1684667597       12.3646885472       38.1461176421  TIP3      3332            0.0000000000
     32317      3525  TIP3      OH2            12.2984319435       13.9163344546       39.0072698962  TIP3      3333            0.0000000000
     32318      3525  TIP3      H1             12.1330220603       13.7900662324       39.9651433036  TIP3      3333            0.0000000000
     32319      3525  TIP3      H2             12.1054778203       13.0151826645       38.6484609482  TIP3      3333            0.0000000000
     32320      3526  TIP3      OH2             7.4395754603       10.8196524110       41.1823833288  TIP3      3334            0.0000000000
     32321      3526  TIP3      H1              7.0900832157       10.1095251097       41.7413702783  TIP3      3334            0.0000000000
     32322      3526  TIP3      H2              7.8446944790       10.3038527517       40.4509625265  TIP3      3334            0.0000000000
     32323      3527  TIP3      OH2             8.6700987436        9.1569075461       39.3051149518  TIP3      3335            0.0000000000
     32324      3527  TIP3      H1              8.6564287399        9.2978560938       38.3340620282  TIP3      3335            0.0000000000
     32325      3527  TIP3      H2              9.6399719470        9.1134826890       39.4518698994  TIP3      3335            0.0000000000
     32326      3528  TIP3      OH2            18.1815732550       11.2369876741       38.9688035306  TIP3      3336            0.0000000000
     32327      3528  TIP3      H1             17.9179496311       11.0001402696       38.0494506723  TIP3      3336            0.0000000000
     32328      3528  TIP3      H2             18.0750032676       12.2247601554       38.9131958201  TIP3      3336            0.0000000000
     32329      3529  TIP3      OH2             8.7023536085       19.3293180431       41.4935319733  TIP3      3337            0.0000000000
     32330      3529  TIP3      H1              9.6706105325       19.4402081319       41.5220001176  TIP3      3337            0.0000000000
     32331      3529  TIP3      H2              8.4986348118       19.8874156759       40.7221944886  TIP3      3337            0.0000000000
     32332      3530  TIP3      OH2             1.9888896245       14.1837013319       40.4214315018  TIP3      3338            0.0000000000
     32333      3530  TIP3      H1              2.9750761913       14.1599744217       40.3918818849  TIP3      3338            0.0000000000
     32334      3530  TIP3      H2              1.7629233066       13.6810356253       39.6229979226  TIP3      3338            0.0000000000
     32335      3531  TIP3      OH2            19.6304716190        9.9908363288       40.9180716089  TIP3      3339            0.0000000000
     32336      3531  TIP3      H1             19.1812294679       10.4003043070       40.1486662971  TIP3      3339            0.0000000000
     32337      3531  TIP3      H2             19.6807622418       10.7364355581       41.5435976683  TIP3      3339            0.0000000000
     32338      3532  TIP3      OH2            18.5534519302        6.9454031479       39.7565014958  TIP3      3340            0.0000000000
     32339      3532  TIP3      H1             18.4932838422        7.8619129586       39.4308639585  TIP3      3340            0.0000000000
     32340      3532  TIP3      H2             17.6394841181        6.7554234859       40.0246240785  TIP3      3340            0.0000000000
     32341      3533  TIP3      OH2            16.9399313883        4.4168600655       39.0971987292  TIP3      3341            0.0000000000
     32342      3533  TIP3      H1             17.6381603414        4.0246505766       39.6738706256  TIP3      3341            0.0000000000
     32343      3533  TIP3      H2             16.1998371203        4.4668610660       39.7225555251  TIP3      3341            0.0000000000
     32344      3534  TIP3      OH2            19.0352402272        3.2351269462       40.4977710896  TIP3      3342            0.0000000000
     32345      3534  TIP3      H1             19.3398624083        2.5630606667       39.8351450404  TIP3      3342            0.0000000000
     32346      3534  TIP3      H2             19.9059050900        3.5262010635       40.8219882271  TIP3      3342            0.0000000000
     32347      3535  TIP3      OH2             2.8315722430        1.9104254852       41.3801953989  TIP3      3343            0.0000000000
     32348      3535  TIP3      H1              2.9839330911        2.6440369272       40.7493565741  TIP3      3343            0.0000000000
     32349      3535  TIP3      H2              3.0259392598        2.3802336079       42.2079097353  TIP3      3343            0.0000000000
     32350      3536  TIP3      OH2             3.9919125866        3.6498734634       39.7389220797  TIP3      3344            0.0000000000
     32351      3536  TIP3      H1              4.6411289623        3.1235879567       39.2217388582  TIP3      3344            0.0000000000
     32352      3536  TIP3      H2              4.4997370758        3.8354094833       40.5546826877  TIP3      3344            0.0000000000
     32353      3537  TIP3      OH2            11.6555269569       18.7176243770       41.0523479562  TIP3      3345            0.0000000000
     32354      3537  TIP3      H1             12.6236060551       18.7738303226       40.9601664214  TIP3      3345            0.0000000000
     32355      3537  TIP3      H2             11.4329940071       18.3688114336       40.1513216164  TIP3      3345            0.0000000000
     32356      3538  TIP3      OH2             3.7142365864       18.7735151975       39.3451546558  TIP3      3346            0.0000000000
     32357      3538  TIP3      H1              3.4002784335       19.2943477917       40.1119238758  TIP3      3346            0.0000000000
     32358      3538  TIP3      H2              4.2552026688       18.0830285586       39.7641135773  TIP3      3346            0.0000000000
     32359      3539  TIP3      OH2            30.3999582267        9.1325453785       40.1431548530  TIP3      3347            0.0000000000
     32360      3539  TIP3      H1             30.9386748375        9.3920555022       40.9280785231  TIP3      3347            0.0000000000
     32361      3539  TIP3      H2             30.9404082691        8.3779458168       39.8461008679  TIP3      3347            0.0000000000
     32362      3540  TIP3      OH2            32.5126914760        9.8070614223       41.7834241966  TIP3      3348            0.0000000000
     32363      3540  TIP3      H1             33.1378248869       10.0286396124       42.4985953123  TIP3      3348            0.0000000000
     32364      3540  TIP3      H2             32.9370459030       10.2212839703       40.9939959661  TIP3      3348            0.0000000000
     32365      3541  TIP3      OH2            36.0102537829        1.5572625839       41.8512687090  TIP3      3349            0.0000000000
     32366      3541  TIP3      H1             35.0694708707        1.4905412691       41.6511081457  TIP3      3349            0.0000000000
     32367      3541  TIP3      H2             36.4691437084        1.2546232542       41.0479749525  TIP3      3349            0.0000000000
     32368      3542  TIP3      OH2            33.1862757867       18.3648133938       40.6252459704  TIP3      3350            0.0000000000
     32369      3542  TIP3      H1             33.1840781766       17.6597662853       39.9464749584  TIP3      3350            0.0000000000
     32370      3542  TIP3      H2             33.6430907328       17.9345845742       41.3786473944  TIP3      3350            0.0000000000
     32371      3543  TIP3      OH2            33.8566425786       11.1964275001       39.8975523926  TIP3      3351            0.0000000000
     32372      3543  TIP3      H1             33.6979822116       11.1964902651       38.9215840642  TIP3      3351            0.0000000000
     32373      3543  TIP3      H2             34.2713416022       12.0757350666       39.9475982656  TIP3      3351            0.0000000000
     32374      3544  TIP3      OH2            29.6129254075        4.8126032728       40.0599871001  TIP3      3352            0.0000000000
     32375      3544  TIP3      H1             28.9670689280        4.8566859665       40.7742103329  TIP3      3352            0.0000000000
     32376      3544  TIP3      H2             29.6576101928        3.8593087068       39.8874882871  TIP3      3352            0.0000000000
     32377      3545  TIP3      OH2            26.4399449554        4.6390782930       39.3221005495  TIP3      3353            0.0000000000
     32378      3545  TIP3      H1             25.9363931090        4.4551799877       40.1382317979  TIP3      3353            0.0000000000
     32379      3545  TIP3      H2             25.7292534218        4.6383203085       38.6646403066  TIP3      3353            0.0000000000
     32380      3546  TIP3      OH2            20.8634761801        5.0453052070       41.5654592328  TIP3      3354            0.0000000000
     32381      3546  TIP3      H1             20.7787935905        5.6766259050       40.8205937570  TIP3      3354            0.0000000000
     32382      3546  TIP3      H2             20.3490485693        5.5139000290       42.2492834314  TIP3      3354            0.0000000000
     32383      3547  TIP3      OH2            25.3556840028        7.4949168280       40.6924964590  TIP3      3355            0.0000000000
     32384      3547  TIP3      H1             25.1653441530        7.2410024005       39.7624924963  TIP3      3355            0.0000000000
     32385      3547  TIP3      H2             26.0919401353        8.1042227527       40.4854091476  TIP3      3355            0.0000000000
     32386      3548  TIP3      OH2            32.3245316099        5.2355241079       40.3671484341  TIP3      3356            0.0000000000
     32387      3548  TIP3      H1             31.4179857974        5.5476209945       40.5262827766  TIP3      3356            0.0000000000
     32388      3548  TIP3      H2             32.8351864480        5.7879066454       41.0029594259  TIP3      3356            0.0000000000
     32389      3549  TIP3      OH2            33.3397206401        7.1592972664       41.8873852330  TIP3      3357            0.0000000000
     32390      3549  TIP3      H1             34.2892738177        7.1343926284       42.0638890464  TIP3      3357            0.0000000000
     32391      3549  TIP3      H2             33.1778529039        7.9420716091       41.3368810411  TIP3      3357            0.0000000000
     32392      3550  TIP3      OH2            30.5137359326       13.8750007607       41.6580125006  TIP3      3358            0.0000000000
     32393      3550  TIP3      H1             29.9340078644       14.6549615913       41.6004514922  TIP3      3358            0.0000000000
     32394      3550  TIP3      H2             29.9853886970       13.2257987199       42.1358194347  TIP3      3358            0.0000000000
     32395      3551  TIP3      OH2            22.2563519287       10.1584409960       39.8538101057  TIP3      3359            0.0000000000
     32396      3551  TIP3      H1             22.6085855909       10.8619030012       40.4489037074  TIP3      3359            0.0000000000
     32397      3551  TIP3      H2             21.3293057672       10.1052312899       40.1553451781  TIP3      3359            0.0000000000
     32398      3552  TIP3      OH2            33.9152063673       14.0109406799       40.5649825502  TIP3      3360            0.0000000000
     32399      3552  TIP3      H1             33.7475286432       14.6395780919       41.2868241606  TIP3      3360            0.0000000000
     32400      3552  TIP3      H2             33.0048901463       13.8355843719       40.2598596017  TIP3      3360            0.0000000000
     32401      3553  TIP3      OH2            28.1008312497       15.4405080756       38.7059988406  TIP3      3361            0.0000000000
     32402      3553  TIP3      H1             27.7172586537       14.8324344769       38.0531725842  TIP3      3361            0.0000000000
     32403      3553  TIP3      H2             27.7360245478       15.0455901235       39.5237819725  TIP3      3361            0.0000000000
     32404      3554  TIP3      OH2            26.6565791708       14.6418567174       41.1527809183  TIP3      3362            0.0000000000
     32405      3554  TIP3      H1             27.1943516001       14.2334587567       41.8414782382  TIP3      3362            0.0000000000
     32406      3554  TIP3      H2             26.4258143136       15.4972490976       41.5755220700  TIP3      3362            0.0000000000
     32407      3555  TIP3      OH2            22.8714758977       11.8303280311       41.9022418553  TIP3      3363            0.0000000000
     32408      3555  TIP3      H1             22.6564519938       11.1945532326       42.6160030166  TIP3      3363            0.0000000000
     32409      3555  TIP3      H2             23.7905592212       12.0655395513       42.1420935698  TIP3      3363            0.0000000000
     32410      3556  TIP3      OH2            29.0057914303       16.3437464460       41.5240313962  TIP3      3364            0.0000000000
     32411      3556  TIP3      H1             28.0901789530       16.6842587881       41.5404469728  TIP3      3364            0.0000000000
     32412      3556  TIP3      H2             29.5018383445       17.1505767567       41.2730954486  TIP3      3364            0.0000000000
     32413      3557  TIP3      OH2            26.3089499836       17.0184996149       42.3464782554  TIP3      3365            0.0000000000
     32414      3557  TIP3      H1             26.1521236792       17.7193772735       41.6967809873  TIP3      3365            0.0000000000
     32415      3557  TIP3      H2             26.6045645678       17.5423521632       43.1104942205  TIP3      3365            0.0000000000
     32416      3558  TIP3      OH2            25.3843934120        3.6369083001       41.6113016337  TIP3      3366            0.0000000000
     32417      3558  TIP3      H1             25.7946675430        4.3249598290       42.1951085482  TIP3      3366            0.0000000000
     32418      3558  TIP3      H2             26.0828307014        2.9716443751       41.5190895085  TIP3      3366            0.0000000000
     32419      3559  TIP3      OH2            23.6553935621       14.7170961455       40.5023476567  TIP3      3367            0.0000000000
     32420      3559  TIP3      H1             24.3581795465       15.0260103675       41.0936498301  TIP3      3367            0.0000000000
     32421      3559  TIP3      H2             24.1984238606       14.2133897270       39.8834691494  TIP3      3367            0.0000000000
     32422      3560  TIP3      OH2            21.6624788613        7.3811414704       39.9827478543  TIP3      3368            0.0000000000
     32423      3560  TIP3      H1             22.1735578362        8.2086937161       40.0642232375  TIP3      3368            0.0000000000
     32424      3560  TIP3      H2             21.0210062963        7.6394728380       39.2963684819  TIP3      3368            0.0000000000
     32425      3561  TIP3      OH2            30.0924246335       17.5057620423       38.8553223207  TIP3      3369            0.0000000000
     32426      3561  TIP3      H1             29.5263735661       16.6963722560       38.8280192174  TIP3      3369            0.0000000000
     32427      3561  TIP3      H2             30.9256558783       17.1406108667       38.4788094552  TIP3      3369            0.0000000000
     32428      3562  TIP3      OH2            34.2456947856       16.5247532257       38.9068344856  TIP3      3370            0.0000000000
     32429      3562  TIP3      H1             34.6179851329       16.0831409155       39.6834600182  TIP3      3370            0.0000000000
     32430      3562  TIP3      H2             35.0406427319       16.6017577957       38.3283790906  TIP3      3370            0.0000000000
     32431      3563  TIP3      OH2            25.5160660604       12.3712851999       38.6862755894  TIP3      3371            0.0000000000
     32432      3563  TIP3      H1             25.9460829829       12.0752494432       39.5063847836  TIP3      3371            0.0000000000
     32433      3563  TIP3      H2             26.2332920191       12.2351723986       38.0246442250  TIP3      3371            0.0000000000
     32434      3564  TIP3      OH2            31.3327492180       13.8004772793       39.0332015717  TIP3      3372            0.0000000000
     32435      3564  TIP3      H1             31.0738040112       13.7697004650       39.9768451249  TIP3      3372            0.0000000000
     32436      3564  TIP3      H2             31.0131914272       12.8986874657       38.7525023566  TIP3      3372            0.0000000000
     32437      3565  TIP3      OH2            26.4536017675       10.8759847281       40.9227021429  TIP3      3373            0.0000000000
     32438      3565  TIP3      H1             26.4308142430       10.3588570844       41.7389064412  TIP3      3373            0.0000000000
     32439      3565  TIP3      H2             26.9969769212       10.3097686560       40.3344801676  TIP3      3373            0.0000000000
     32440      3566  TIP3      OH2            27.6824879187        9.0596752797       39.4719087074  TIP3      3374            0.0000000000
     32441      3566  TIP3      H1             27.5701286609        9.2839413177       38.5178073171  TIP3      3374            0.0000000000
     32442      3566  TIP3      H2             28.6590503279        9.1245753817       39.5589161268  TIP3      3374            0.0000000000
     32443      3567  TIP3      OH2            27.8951604535       19.3225706702       41.4935159254  TIP3      3375            0.0000000000
     32444      3567  TIP3      H1             28.8706209528       19.3919554413       41.5077955772  TIP3      3375            0.0000000000
     32445      3567  TIP3      H2             27.6689064624       19.9388544989       40.7730674785  TIP3      3375            0.0000000000
     32446      3568  TIP3      OH2            20.7899807133       14.1420187044       40.2824883556  TIP3      3376            0.0000000000
     32447      3568  TIP3      H1             21.7645220376       14.2167855271       40.3559870735  TIP3      3376            0.0000000000
     32448      3568  TIP3      H2             20.7057805305       13.5935279140       39.4747312654  TIP3      3376            0.0000000000
     32449      3569  TIP3      OH2            36.1441249326        7.1961298268       39.6992582348  TIP3      3377            0.0000000000
     32450      3569  TIP3      H1             36.0306100584        7.9376575432       39.0906672622  TIP3      3377            0.0000000000
     32451      3569  TIP3      H2             35.8578433102        6.4513070556       39.1245642542  TIP3      3377            0.0000000000
     32452      3570  TIP3      OH2            35.6803860959        4.5220673559       39.1310189057  TIP3      3378            0.0000000000
     32453      3570  TIP3      H1             35.6904131178        4.3773645532       40.0949031126  TIP3      3378            0.0000000000
     32454      3570  TIP3      H2             34.7430106580        4.3500354366       38.9148283474  TIP3      3378            0.0000000000
     32455      3571  TIP3      OH2            21.7799825737        2.0746541705       41.2730124803  TIP3      3379            0.0000000000
     32456      3571  TIP3      H1             21.8744423599        2.9509101642       40.8623870062  TIP3      3379            0.0000000000
     32457      3571  TIP3      H2             21.7129849216        2.3276175788       42.2022306204  TIP3      3379            0.0000000000
     32458      3572  TIP3      OH2            23.4478499896        3.8364162508       39.9270977412  TIP3      3380            0.0000000000
     32459      3572  TIP3      H1             23.4769188107        3.0938882299       39.2767648802  TIP3      3380            0.0000000000
     32460      3572  TIP3      H2             24.1499204281        3.5160733313       40.5357904553  TIP3      3380            0.0000000000
     32461      3573  TIP3      OH2            30.6086017555       18.6713007088       41.1552589682  TIP3      3381            0.0000000000
     32462      3573  TIP3      H1             31.5758444551       18.6936534492       40.9884219044  TIP3      3381            0.0000000000
     32463      3573  TIP3      H2             30.3349255830       18.4898148921       40.2215893897  TIP3      3381            0.0000000000
     32464      3574  TIP3      OH2            22.4612035385       18.6417535730       39.3002501682  TIP3      3382            0.0000000000
     32465      3574  TIP3      H1             22.1031615344       19.2373377841       39.9867978039  TIP3      3382            0.0000000000
     32466      3574  TIP3      H2             23.1544919416       18.1723571677       39.7880148271  TIP3      3382            0.0000000000
     32467      3575  TIP3      OH2           -26.2934929730       28.0961326120       39.8880870570  TIP3      3383            0.0000000000
     32468      3575  TIP3      H1            -25.6014441361       28.4554172899       40.4789384163  TIP3      3383            0.0000000000
     32469      3575  TIP3      H2            -25.8552883678       27.2487063995       39.6829601826  TIP3      3383            0.0000000000
     32470      3576  TIP3      OH2           -24.0108687881       28.6156633221       41.2122827150  TIP3      3384            0.0000000000
     32471      3576  TIP3      H1            -24.0656430497       29.1059960448       42.0442205819  TIP3      3384            0.0000000000
     32472      3576  TIP3      H2            -23.3520543458       29.1183485919       40.6663162969  TIP3      3384            0.0000000000
     32473      3577  TIP3      OH2           -20.1992969723       20.2664165855       41.9831393102  TIP3      3385            0.0000000000
     32474      3577  TIP3      H1            -21.0685413478       20.1475401530       41.5965232733  TIP3      3385            0.0000000000
     32475      3577  TIP3      H2            -19.8651595479       21.0826594644       41.5427866200  TIP3      3385            0.0000000000
     32476      3578  TIP3      OH2           -19.1325983423       34.8704708259       39.9221275331  TIP3      3386            0.0000000000
     32477      3578  TIP3      H1            -18.8893709765       35.7582508076       40.2325044560  TIP3      3386            0.0000000000
     32478      3578  TIP3      H2            -18.4263390249       34.3123715198       40.3079084736  TIP3      3386            0.0000000000
     32479      3579  TIP3      OH2           -22.0454284581       29.7263663420       39.9238374272  TIP3      3387            0.0000000000
     32480      3579  TIP3      H1            -22.2959288006       29.6808736922       38.9797945646  TIP3      3387            0.0000000000
     32481      3579  TIP3      H2            -21.0657920826       29.7630644124       39.8310633060  TIP3      3387            0.0000000000
     32482      3580  TIP3      OH2           -26.6299957197       23.4949240890       40.3284039585  TIP3      3388            0.0000000000
     32483      3580  TIP3      H1            -27.3720141157       23.8991474832       40.7939467252  TIP3      3388            0.0000000000
     32484      3580  TIP3      H2            -27.0564859756       22.8514239436       39.7503884784  TIP3      3388            0.0000000000
     32485      3581  TIP3      OH2           -30.0998114618       23.8761926422       39.1651998614  TIP3      3389            0.0000000000
     32486      3581  TIP3      H1            -30.5803853314       23.5675448940       39.9603696764  TIP3      3389            0.0000000000
     32487      3581  TIP3      H2            -30.7659357229       24.4878627727       38.7816073605  TIP3      3389            0.0000000000
     32488      3582  TIP3      OH2           -35.6446332388       24.3201980380       41.4169749632  TIP3      3390            0.0000000000
     32489      3582  TIP3      H1            -34.7388033039       24.1493886996       41.0952598217  TIP3      3390            0.0000000000
     32490      3582  TIP3      H2            -36.0493870959       24.8609494286       40.7003691634  TIP3      3390            0.0000000000
     32491      3583  TIP3      OH2           -31.1505054536       26.5343532785       40.7655883618  TIP3      3391            0.0000000000
     32492      3583  TIP3      H1            -31.7413572825       26.1307105574       40.1095357302  TIP3      3391            0.0000000000
     32493      3583  TIP3      H2            -30.4703223983       26.9079717522       40.1748191496  TIP3      3391            0.0000000000
     32494      3584  TIP3      OH2           -24.0274507978       24.1324284091       40.7423393711  TIP3      3392            0.0000000000
     32495      3584  TIP3      H1            -24.9882196880       24.0563072962       40.9115896879  TIP3      3392            0.0000000000
     32496      3584  TIP3      H2            -23.7366731793       24.7473679232       41.4649952359  TIP3      3392            0.0000000000
     32497      3585  TIP3      OH2           -23.4128077023       26.2132889303       42.1946769391  TIP3      3393            0.0000000000
     32498      3585  TIP3      H1            -22.5053555491       26.2321480221       42.5405185657  TIP3      3393            0.0000000000
     32499      3585  TIP3      H2            -23.4172289294       26.9754228198       41.5841269630  TIP3      3393            0.0000000000
     32500      3586  TIP3      OH2           -25.9484709277       32.9306882353       41.8083176083  TIP3      3394            0.0000000000
     32501      3586  TIP3      H1            -26.6926186532       33.5707284185       41.8730109501  TIP3      3394            0.0000000000
     32502      3586  TIP3      H2            -26.3154280822       32.1273978918       42.1835953036  TIP3      3394            0.0000000000
     32503      3587  TIP3      OH2           -18.5100795240       26.2004471588       41.9037856442  TIP3      3395            0.0000000000
     32504      3587  TIP3      H1            -19.0513395138       25.7211705836       41.2435804312  TIP3      3395            0.0000000000
     32505      3587  TIP3      H2            -18.3011216044       27.0197306518       41.4081120556  TIP3      3395            0.0000000000
     32506      3588  TIP3      OH2           -35.1588400099       28.7075314005       40.3707307786  TIP3      3396            0.0000000000
     32507      3588  TIP3      H1            -34.5534806212       29.3774236013       40.7663723894  TIP3      3396            0.0000000000
     32508      3588  TIP3      H2            -36.0189807753       29.0545128346       40.6419072017  TIP3      3396            0.0000000000
     32509      3589  TIP3      OH2           -22.3998498073       32.8175219106       40.5951223639  TIP3      3397            0.0000000000
     32510      3589  TIP3      H1            -22.5406028221       33.3609826908       41.3812999234  TIP3      3397            0.0000000000
     32511      3589  TIP3      H2            -23.3122865837       32.7309578869       40.2892452319  TIP3      3397            0.0000000000
     32512      3590  TIP3      OH2           -28.3554728661       33.7627552811       38.6266695440  TIP3      3398            0.0000000000
     32513      3590  TIP3      H1            -28.2724641277       32.9185912551       38.1564897011  TIP3      3398            0.0000000000
     32514      3590  TIP3      H2            -29.0004795256       33.5388736831       39.3199675547  TIP3      3398            0.0000000000
     32515      3591  TIP3      OH2           -30.2782324628       32.8338477616       41.3417680410  TIP3      3399            0.0000000000
     32516      3591  TIP3      H1            -29.5068892537       33.0623382260       41.8902066308  TIP3      3399            0.0000000000
     32517      3591  TIP3      H2            -30.5205825937       33.7240587586       41.0148464723  TIP3      3399            0.0000000000
     32518      3592  TIP3      OH2           -33.7187843678       30.6834451705       41.4143143422  TIP3      3400            0.0000000000
     32519      3592  TIP3      H1            -33.5492903926       30.4224775244       42.3319455794  TIP3      3400            0.0000000000
     32520      3592  TIP3      H2            -32.8353861807       31.0125292182       41.1933234430  TIP3      3400            0.0000000000
     32521      3593  TIP3      OH2           -27.8363037191       34.9161684224       41.6220832140  TIP3      3401            0.0000000000
     32522      3593  TIP3      H1            -28.7724840070       35.2137511833       41.6813540985  TIP3      3401            0.0000000000
     32523      3593  TIP3      H2            -27.4761225420       35.5653453533       40.9705428144  TIP3      3401            0.0000000000
     32524      3594  TIP3      OH2           -30.3642389396       35.5607858995       42.0180128959  TIP3      3402            0.0000000000
     32525      3594  TIP3      H1            -30.3036855820       36.4926180239       41.7184681734  TIP3      3402            0.0000000000
     32526      3594  TIP3      H2            -30.5392302597       35.7316246071       42.9569656751  TIP3      3402            0.0000000000
     32527      3595  TIP3      OH2           -31.4398516573       22.8640754534       41.4017419958  TIP3      3403            0.0000000000
     32528      3595  TIP3      H1            -31.0910079138       23.4786464895       42.0961232423  TIP3      3403            0.0000000000
     32529      3595  TIP3      H2            -30.7871115746       22.1469639667       41.4059071760  TIP3      3403            0.0000000000
     32530      3596  TIP3      OH2           -33.1863283788       33.6418477669       39.9453649470  TIP3      3404            0.0000000000
     32531      3596  TIP3      H1            -32.9110497137       34.0945797005       40.7560760773  TIP3      3404            0.0000000000
     32532      3596  TIP3      H2            -32.4933558127       32.9654298499       39.8563637343  TIP3      3404            0.0000000000
     32533      3597  TIP3      OH2           -34.1094361866       26.2881590819       39.5784958090  TIP3      3405            0.0000000000
     32534      3597  TIP3      H1            -34.1412017866       26.9535153663       40.2928323309  TIP3      3405            0.0000000000
     32535      3597  TIP3      H2            -35.0413198987       26.0264262678       39.5223181520  TIP3      3405            0.0000000000
     32536      3598  TIP3      OH2           -26.7761425198       35.9168547032       39.3210461477  TIP3      3406            0.0000000000
     32537      3598  TIP3      H1            -27.3802747392       35.1767711890       39.1149843033  TIP3      3406            0.0000000000
     32538      3598  TIP3      H2            -25.9397487669       35.5413199871       39.0039257875  TIP3      3406            0.0000000000
     32539      3599  TIP3      OH2           -22.4927643401       35.3625823922       38.9467281449  TIP3      3407            0.0000000000
     32540      3599  TIP3      H1            -21.9167279941       35.0853835950       39.6738623661  TIP3      3407            0.0000000000
     32541      3599  TIP3      H2            -21.8055478595       35.5871560133       38.2724031580  TIP3      3407            0.0000000000
     32542      3600  TIP3      OH2           -31.0017493822       31.6486594475       38.8338920080  TIP3      3408            0.0000000000
     32543      3600  TIP3      H1            -30.9201964600       31.0498606637       39.6105561119  TIP3      3408            0.0000000000
     32544      3600  TIP3      H2            -30.2053673632       31.3168967544       38.3504118337  TIP3      3408            0.0000000000
     32545      3601  TIP3      OH2           -25.4278140344       32.5899448166       39.0879878170  TIP3      3409            0.0000000000
     32546      3601  TIP3      H1            -25.6890890770       32.5879952175       40.0338906153  TIP3      3409            0.0000000000
     32547      3601  TIP3      H2            -25.6149751044       31.6669887679       38.7952368599  TIP3      3409            0.0000000000
     32548      3602  TIP3      OH2           -30.5797951016       29.6727364651       40.6295598241  TIP3      3410            0.0000000000
     32549      3602  TIP3      H1            -31.0928906176       29.2144254855       41.3165176275  TIP3      3410            0.0000000000
     32550      3602  TIP3      H2            -30.0192130203       28.9506741713       40.2802481408  TIP3      3410            0.0000000000
     32551      3603  TIP3      OH2           -28.9608167917       27.8316644178       39.3305910843  TIP3      3411            0.0000000000
     32552      3603  TIP3      H1            -28.9719025365       28.1714890429       38.4121801377  TIP3      3411            0.0000000000
     32553      3603  TIP3      H2            -27.9973258439       27.6859565298       39.4346970476  TIP3      3411            0.0000000000
     32554      3604  TIP3      OH2           -19.5248859356       29.9598764868       39.0347836515  TIP3      3412            0.0000000000
     32555      3604  TIP3      H1            -19.6900438764       29.7405211584       38.0830103003  TIP3      3412            0.0000000000
     32556      3604  TIP3      H2            -19.4766156100       30.9495910200       38.9781344794  TIP3      3412            0.0000000000
     32557      3605  TIP3      OH2           -35.8612380830       33.4874918857       40.2939785182  TIP3      3413            0.0000000000
     32558      3605  TIP3      H1            -34.9379937213       33.6688296485       40.0242303099  TIP3      3413            0.0000000000
     32559      3605  TIP3      H2            -35.8065634765       32.5225189905       40.3117859316  TIP3      3413            0.0000000000
     32560      3606  TIP3      OH2           -18.0183561024       28.7305490026       40.9118195474  TIP3      3414            0.0000000000
     32561      3606  TIP3      H1            -18.4712305112       29.0726056757       40.1037174092  TIP3      3414            0.0000000000
     32562      3606  TIP3      H2            -18.2777291406       29.4188496445       41.5475583032  TIP3      3414            0.0000000000
     32563      3607  TIP3      OH2           -20.3928176395       26.2256572636       39.5055341418  TIP3      3415            0.0000000000
     32564      3607  TIP3      H1            -20.0655571997       26.7293001577       38.7511108153  TIP3      3415            0.0000000000
     32565      3607  TIP3      H2            -20.5211787842       25.3283722861       39.1310848103  TIP3      3415            0.0000000000
     32566      3608  TIP3      OH2           -20.7768831870       23.5204402130       39.0329019476  TIP3      3416            0.0000000000
     32567      3608  TIP3      H1            -20.1052015342       23.0778505546       39.6096391780  TIP3      3416            0.0000000000
     32568      3608  TIP3      H2            -21.4922379392       23.6652516160       39.6655824401  TIP3      3416            0.0000000000
     32569      3609  TIP3      OH2           -18.7844100650       22.1864032921       40.5646464557  TIP3      3417            0.0000000000
     32570      3609  TIP3      H1            -18.4778518089       21.5239596074       39.8921838428  TIP3      3417            0.0000000000
     32571      3609  TIP3      H2            -17.9295258129       22.5214675284       40.9161181528  TIP3      3417            0.0000000000
     32572      3610  TIP3      OH2           -34.7318732960       20.7286459238       41.0603535329  TIP3      3418            0.0000000000
     32573      3610  TIP3      H1            -34.4665919145       21.6173777180       40.7503880975  TIP3      3418            0.0000000000
     32574      3610  TIP3      H2            -35.1806538720       20.9648859195       41.8920559884  TIP3      3418            0.0000000000
     32575      3611  TIP3      OH2           -33.5322089861       22.9536669408       39.8882268622  TIP3      3419            0.0000000000
     32576      3611  TIP3      H1            -32.9717747716       22.3250971051       39.3977539158  TIP3      3419            0.0000000000
     32577      3611  TIP3      H2            -32.9897302561       23.0560411309       40.7021188410  TIP3      3419            0.0000000000
     32578      3612  TIP3      OH2            -7.6295872137       28.0327674652       40.0087130999  TIP3      3420            0.0000000000
     32579      3612  TIP3      H1             -7.0122258082       28.4658751686       40.6223973087  TIP3      3420            0.0000000000
     32580      3612  TIP3      H2             -7.0693341134       27.2954655896       39.6957232529  TIP3      3420            0.0000000000
     32581      3613  TIP3      OH2            -5.0284979781       28.7245215995       41.3731902204  TIP3      3421            0.0000000000
     32582      3613  TIP3      H1             -4.9258089509       29.1472905251       42.2413019954  TIP3      3421            0.0000000000
     32583      3613  TIP3      H2             -4.3449277118       29.1832684239       40.8202860044  TIP3      3421            0.0000000000
     32584      3614  TIP3      OH2            -1.2659604382       20.2910131027       41.9215896488  TIP3      3422            0.0000000000
     32585      3614  TIP3      H1             -2.1748550334       20.3151562817       41.5954221166  TIP3      3422            0.0000000000
     32586      3614  TIP3      H2             -0.9004579042       21.1270117014       41.5577356626  TIP3      3422            0.0000000000
     32587      3615  TIP3      OH2            -0.0587809666       34.8652627140       39.7961287351  TIP3      3423            0.0000000000
     32588      3615  TIP3      H1              0.2404057845       35.7728151213       39.9645718018  TIP3      3423            0.0000000000
     32589      3615  TIP3      H2              0.6361299057       34.3432152851       40.2573191571  TIP3      3423            0.0000000000
     32590      3616  TIP3      OH2            -3.2853198153       30.0125899382       39.9809470248  TIP3      3424            0.0000000000
     32591      3616  TIP3      H1             -3.6257606676       30.3678785038       39.1364050280  TIP3      3424            0.0000000000
     32592      3616  TIP3      H2             -2.3426377743       29.9208284930       39.7554681847  TIP3      3424            0.0000000000
     32593      3617  TIP3      OH2            -7.8193833608       23.6040725761       40.2034997490  TIP3      3425            0.0000000000
     32594      3617  TIP3      H1             -8.7007797667       23.7319555798       40.5787601614  TIP3      3425            0.0000000000
     32595      3617  TIP3      H2             -7.8568827945       22.7013366010       39.8646853873  TIP3      3425            0.0000000000
     32596      3618  TIP3      OH2           -11.3686579182       23.8527836314       39.2903237818  TIP3      3426            0.0000000000
     32597      3618  TIP3      H1            -11.9737757420       23.4405674498       39.9599809474  TIP3      3426            0.0000000000
     32598      3618  TIP3      H2            -11.9123475458       24.5956659592       38.9561565612  TIP3      3426            0.0000000000
     32599      3619  TIP3      OH2           -16.9040609752       23.8298134759       41.5914647094  TIP3      3427            0.0000000000
     32600      3619  TIP3      H1            -16.2661364037       24.3181268281       41.0327465627  TIP3      3427            0.0000000000
     32601      3619  TIP3      H2            -17.4032735112       24.5939576112       41.9254758239  TIP3      3427            0.0000000000
     32602      3620  TIP3      OH2           -12.4727478084       26.5837168923       40.6095325503  TIP3      3428            0.0000000000
     32603      3620  TIP3      H1            -12.9807990131       26.0868559547       39.9482847918  TIP3      3428            0.0000000000
     32604      3620  TIP3      H2            -11.9255653346       27.1487659528       40.0364720223  TIP3      3428            0.0000000000
     32605      3621  TIP3      OH2            -5.1313235468       24.2268032104       40.4242110373  TIP3      3429            0.0000000000
     32606      3621  TIP3      H1             -6.1044043629       24.2341321305       40.5574287822  TIP3      3429            0.0000000000
     32607      3621  TIP3      H2             -4.8113227502       24.7683199913       41.1839207878  TIP3      3429            0.0000000000
     32608      3622  TIP3      OH2            -4.5259450170       26.2232884739       42.0473185847  TIP3      3430            0.0000000000
     32609      3622  TIP3      H1             -3.6308426917       26.2369200278       42.4272930587  TIP3      3430            0.0000000000
     32610      3622  TIP3      H2             -4.5698520904       27.0532665200       41.5334299464  TIP3      3430            0.0000000000
     32611      3623  TIP3      OH2            -7.1567894639       32.5336566356       41.7589318831  TIP3      3431            0.0000000000
     32612      3623  TIP3      H1             -7.6686385601       33.3580347551       41.7662429664  TIP3      3431            0.0000000000
     32613      3623  TIP3      H2             -7.7437240314       31.9505874966       42.2436569638  TIP3      3431            0.0000000000
     32614      3624  TIP3      OH2             0.3785334963       26.1763164319       41.8849317069  TIP3      3432            0.0000000000
     32615      3624  TIP3      H1             -0.1365331025       25.7846064872       41.1407889990  TIP3      3432            0.0000000000
     32616      3624  TIP3      H2              0.5110194948       27.0665153764       41.4954106918  TIP3      3432            0.0000000000
     32617      3625  TIP3      OH2           -15.2532960865       29.1074030186       40.0578870532  TIP3      3433            0.0000000000
     32618      3625  TIP3      H1            -14.9672583596       29.8244055884       40.6786084408  TIP3      3433            0.0000000000
     32619      3625  TIP3      H2            -16.1595026831       28.9304058692       40.3719268642  TIP3      3433            0.0000000000
     32620      3626  TIP3      OH2            -3.8005663987       32.6933161237       40.4540335997  TIP3      3434            0.0000000000
     32621      3626  TIP3      H1             -4.1095300594       33.2764494382       41.1598197751  TIP3      3434            0.0000000000
     32622      3626  TIP3      H2             -4.6253580576       32.5349677512       39.9594430496  TIP3      3434            0.0000000000
     32623      3627  TIP3      OH2            -9.5397426320       34.0185297411       38.3855237309  TIP3      3435            0.0000000000
     32624      3627  TIP3      H1            -10.0684845222       33.7282384346       37.6229367447  TIP3      3435            0.0000000000
     32625      3627  TIP3      H2            -10.0944181868       33.6470852569       39.0921704519  TIP3      3435            0.0000000000
     32626      3628  TIP3      OH2           -11.3022217210       33.4322060691       41.3993983775  TIP3      3436            0.0000000000
     32627      3628  TIP3      H1            -10.8169520796       33.3012665455       42.2259163079  TIP3      3436            0.0000000000
     32628      3628  TIP3      H2            -10.8350363471       34.1942395252       41.0333675565  TIP3      3436            0.0000000000
     32629      3629  TIP3      OH2           -14.7054185587       30.8367085039       41.9575629933  TIP3      3437            0.0000000000
     32630      3629  TIP3      H1            -15.1186687675       30.1977092334       42.5823402256  TIP3      3437            0.0000000000
     32631      3629  TIP3      H2            -13.7721752256       30.8612658478       42.2615658222  TIP3      3437            0.0000000000
     32632      3630  TIP3      OH2            -8.9613217497       35.0544417216       41.7378265603  TIP3      3438            0.0000000000
     32633      3630  TIP3      H1             -9.6146398876       35.7793683523       41.8791873272  TIP3      3438            0.0000000000
     32634      3630  TIP3      H2             -8.3981449127       35.4817832802       41.0480272939  TIP3      3438            0.0000000000
     32635      3631  TIP3      OH2           -10.7733355092       36.9567176556       42.0437495560  TIP3      3439            0.0000000000
     32636      3631  TIP3      H1            -11.2526530088       36.7939966677       41.2183089699  TIP3      3439            0.0000000000
     32637      3631  TIP3      H2            -11.4289541761       36.7377830829       42.7188725698  TIP3      3439            0.0000000000
     32638      3632  TIP3      OH2           -12.6620096910       22.7531356815       41.2990409388  TIP3      3440            0.0000000000
     32639      3632  TIP3      H1            -12.5746666317       23.3699982779       42.0542629918  TIP3      3440            0.0000000000
     32640      3632  TIP3      H2            -11.8090810742       22.2923176462       41.3636134453  TIP3      3440            0.0000000000
     32641      3633  TIP3      OH2           -14.4830453259       33.5351973902       40.1532370328  TIP3      3441            0.0000000000
     32642      3633  TIP3      H1            -14.1089403418       34.1979908246       40.7528982891  TIP3      3441            0.0000000000
     32643      3633  TIP3      H2            -13.7267463385       32.9381636138       40.0070856055  TIP3      3441            0.0000000000
     32644      3634  TIP3      OH2           -15.8851483357       26.0671076339       39.9965569150  TIP3      3442            0.0000000000
     32645      3634  TIP3      H1            -15.3889657638       26.8995895810       39.8770266372  TIP3      3442            0.0000000000
     32646      3634  TIP3      H2            -16.6468072384       26.2140261440       39.4311847838  TIP3      3442            0.0000000000
     32647      3635  TIP3      OH2            -7.8196663751       35.9250579082       39.4922665010  TIP3      3443            0.0000000000
     32648      3635  TIP3      H1             -8.3601082762       35.2072684620       39.0946330283  TIP3      3443            0.0000000000
     32649      3635  TIP3      H2             -7.0013116313       35.8018181926       38.9876043835  TIP3      3443            0.0000000000
     32650      3636  TIP3      OH2            -3.6449495868       35.2368868212       39.0427434023  TIP3      3444            0.0000000000
     32651      3636  TIP3      H1             -3.1065353614       34.9456313310       39.7954489930  TIP3      3444            0.0000000000
     32652      3636  TIP3      H2             -2.9337106659       35.5577790906       38.4416418817  TIP3      3444            0.0000000000
     32653      3637  TIP3      OH2           -12.1225078279       31.8048604896       38.7604883969  TIP3      3445            0.0000000000
     32654      3637  TIP3      H1            -11.9493690683       31.2847823580       39.5622945615  TIP3      3445            0.0000000000
     32655      3637  TIP3      H2            -11.4345845728       31.4408831598       38.1632569393  TIP3      3445            0.0000000000
     32656      3638  TIP3      OH2            -6.5390224727       32.6794733415       39.0290332260  TIP3      3446            0.0000000000
     32657      3638  TIP3      H1             -6.8046485852       32.5652317073       39.9656676036  TIP3      3446            0.0000000000
     32658      3638  TIP3      H2             -6.7631892488       31.7926584600       38.6576104375  TIP3      3446            0.0000000000
     32659      3639  TIP3      OH2           -11.2869828211       29.5978970331       41.0306459595  TIP3      3447            0.0000000000
     32660      3639  TIP3      H1            -11.3576653924       28.9820913264       41.7718433611  TIP3      3447            0.0000000000
     32661      3639  TIP3      H2            -11.0973804036       29.0179695242       40.2642883261  TIP3      3447            0.0000000000
     32662      3640  TIP3      OH2           -10.2495003219       27.9692449598       39.1373067874  TIP3      3448            0.0000000000
     32663      3640  TIP3      H1            -10.1713538619       28.2396891764       38.1947106945  TIP3      3448            0.0000000000
     32664      3640  TIP3      H2             -9.3069385429       27.9855100145       39.4155603160  TIP3      3448            0.0000000000
     32665      3641  TIP3      OH2            -0.6642653307       30.0278667315       39.0621321707  TIP3      3449            0.0000000000
     32666      3641  TIP3      H1             -0.8138330394       29.7657217721       38.1251207719  TIP3      3449            0.0000000000
     32667      3641  TIP3      H2             -0.7621063503       31.0120027642       38.9790042925  TIP3      3449            0.0000000000
     32668      3642  TIP3      OH2           -17.0965642971       33.0679060615       40.3411832032  TIP3      3450            0.0000000000
     32669      3642  TIP3      H1            -16.1103932114       33.1235118917       40.3295286163  TIP3      3450            0.0000000000
     32670      3642  TIP3      H2            -17.2357231695       32.4806112866       39.5788510678  TIP3      3450            0.0000000000
     32671      3643  TIP3      OH2             0.7804063764       28.8054734075       40.9460463085  TIP3      3451            0.0000000000
     32672      3643  TIP3      H1              0.2802758837       29.0978095035       40.1476749172  TIP3      3451            0.0000000000
     32673      3643  TIP3      H2              0.3546069946       29.3496010106       41.6284710869  TIP3      3451            0.0000000000
     32674      3644  TIP3      OH2            -0.9738773116       26.1874537169       39.4735973894  TIP3      3452            0.0000000000
     32675      3644  TIP3      H1             -0.9630173170       26.7710063972       38.7013015127  TIP3      3452            0.0000000000
     32676      3644  TIP3      H2             -1.4384589066       25.3989909662       39.1160885972  TIP3      3452            0.0000000000
     32677      3645  TIP3      OH2            -1.9215481818       23.5369980714       39.2475304731  TIP3      3453            0.0000000000
     32678      3645  TIP3      H1             -1.2570308046       23.0814267570       39.8111287128  TIP3      3453            0.0000000000
     32679      3645  TIP3      H2             -2.6568913812       23.6379703738       39.8799502029  TIP3      3453            0.0000000000
     32680      3646  TIP3      OH2             0.1126527204       22.3050841573       40.5553464730  TIP3      3454            0.0000000000
     32681      3646  TIP3      H1              0.3470393869       21.7324949443       39.7788670624  TIP3      3454            0.0000000000
     32682      3646  TIP3      H2              0.9843358713       22.6193321703       40.8720820740  TIP3      3454            0.0000000000
     32683      3647  TIP3      OH2           -16.0605410934       20.7478256130       41.3838773240  TIP3      3455            0.0000000000
     32684      3647  TIP3      H1            -15.8864467632       21.3832358035       40.6609673419  TIP3      3455            0.0000000000
     32685      3647  TIP3      H2            -15.9162196067       21.3222630124       42.1583805642  TIP3      3455            0.0000000000
     32686      3648  TIP3      OH2           -14.9229132663       22.5404811921       39.7066384321  TIP3      3456            0.0000000000
     32687      3648  TIP3      H1            -14.3089735033       21.9774366100       39.1917705230  TIP3      3456            0.0000000000
     32688      3648  TIP3      H2            -14.4285266386       22.6520965567       40.5452873077  TIP3      3456            0.0000000000
     32689      3649  TIP3      OH2            11.3712585347       28.1303397341       39.9883636733  TIP3      3457            0.0000000000
     32690      3649  TIP3      H1             12.0507478952       28.5671599545       40.5355236697  TIP3      3457            0.0000000000
     32691      3649  TIP3      H2             11.9203731124       27.3934114581       39.6506607324  TIP3      3457            0.0000000000
     32692      3650  TIP3      OH2            13.8074081805       28.6530691505       41.2347370864  TIP3      3458            0.0000000000
     32693      3650  TIP3      H1             14.0378068155       29.0582620389       42.0909295211  TIP3      3458            0.0000000000
     32694      3650  TIP3      H2             14.3568886213       29.1746524026       40.5979407651  TIP3      3458            0.0000000000
     32695      3651  TIP3      OH2            17.4540138836       20.2627154173       42.0451020600  TIP3      3459            0.0000000000
     32696      3651  TIP3      H1             16.5592958836       20.3246178771       41.6817471295  TIP3      3459            0.0000000000
     32697      3651  TIP3      H2             17.9120759400       21.0281977679       41.6408371041  TIP3      3459            0.0000000000
     32698      3652  TIP3      OH2            18.5882597468       34.7255923916       40.0203109104  TIP3      3460            0.0000000000
     32699      3652  TIP3      H1             18.7975573310       35.6730678470       40.0103400033  TIP3      3460            0.0000000000
     32700      3652  TIP3      H2             19.3611102017       34.3012608886       40.4606390312  TIP3      3460            0.0000000000
     32701      3653  TIP3      OH2            15.6392210234       30.0641317992       40.0162268554  TIP3      3461            0.0000000000
     32702      3653  TIP3      H1             15.3590639793       30.2355033793       39.0953633425  TIP3      3461            0.0000000000
     32703      3653  TIP3      H2             16.5986678885       29.9475530105       39.8711256796  TIP3      3461            0.0000000000
     32704      3654  TIP3      OH2            11.1352009501       23.3160381561       40.4990547671  TIP3      3462            0.0000000000
     32705      3654  TIP3      H1             10.4075520864       23.7168971466       40.9880781394  TIP3      3462            0.0000000000
     32706      3654  TIP3      H2             10.7096770040       22.6893223811       39.9061981542  TIP3      3462            0.0000000000
     32707      3655  TIP3      OH2             7.5362884642       23.8300111516       39.1277771737  TIP3      3463            0.0000000000
     32708      3655  TIP3      H1              6.9546939880       23.3786880657       39.7779202392  TIP3      3463            0.0000000000
     32709      3655  TIP3      H2              6.9700122070       24.5871049477       38.8488875126  TIP3      3463            0.0000000000
     32710      3656  TIP3      OH2             2.0446877657       23.9375653113       41.5319955541  TIP3      3464            0.0000000000
     32711      3656  TIP3      H1              2.6455402840       24.3538671585       40.8839110311  TIP3      3464            0.0000000000
     32712      3656  TIP3      H2              1.4792281713       24.6922551491       41.7768378124  TIP3      3464            0.0000000000
     32713      3657  TIP3      OH2             6.3998831353       26.5491315625       40.5974738381  TIP3      3465            0.0000000000
     32714      3657  TIP3      H1              6.1045344866       25.9811267939       39.8664941641  TIP3      3465            0.0000000000
     32715      3657  TIP3      H2              7.0837560357       27.0748395497       40.1444394299  TIP3      3465            0.0000000000
     32716      3658  TIP3      OH2            13.5886255560       24.3890413321       40.3026107470  TIP3      3466            0.0000000000
     32717      3658  TIP3      H1             12.7193881181       24.1403739235       40.6985415187  TIP3      3466            0.0000000000
     32718      3658  TIP3      H2             14.0571422371       24.7733099402       41.0818507243  TIP3      3466            0.0000000000
     32719      3659  TIP3      OH2            14.3775276300       26.1631583676       42.0576517388  TIP3      3467            0.0000000000
     32720      3659  TIP3      H1             15.3130753884       26.2732418196       42.3027281394  TIP3      3467            0.0000000000
     32721      3659  TIP3      H2             14.1912409702       26.9468925779       41.5044009064  TIP3      3467            0.0000000000
     32722      3660  TIP3      OH2            11.7128273961       32.5319826157       41.7154685791  TIP3      3468            0.0000000000
     32723      3660  TIP3      H1             11.1650279164       33.3367146885       41.7535530879  TIP3      3468            0.0000000000
     32724      3660  TIP3      H2             11.1798148274       31.9028138710       42.2130434716  TIP3      3468            0.0000000000
     32725      3661  TIP3      OH2            19.2354040757       26.1703080010       41.9179155613  TIP3      3469            0.0000000000
     32726      3661  TIP3      H1             18.7788628329       25.7437976245       41.1582356625  TIP3      3469            0.0000000000
     32727      3661  TIP3      H2             19.3563742453       27.0744998397       41.5654004144  TIP3      3469            0.0000000000
     32728      3662  TIP3      OH2             3.4083262323       28.9940166500       40.0068615577  TIP3      3470            0.0000000000
     32729      3662  TIP3      H1              3.8350809914       29.4901036946       40.7337990917  TIP3      3470            0.0000000000
     32730      3662  TIP3      H2              2.4860756832       28.9123676402       40.3400413983  TIP3      3470            0.0000000000
     32731      3663  TIP3      OH2            15.3361976235       32.9860470765       40.5486187873  TIP3      3471            0.0000000000
     32732      3663  TIP3      H1             15.0926915043       33.4756011602       41.3454750762  TIP3      3471            0.0000000000
     32733      3663  TIP3      H2             14.4532682826       32.7621880639       40.2201384036  TIP3      3471            0.0000000000
     32734      3664  TIP3      OH2             9.2420910975       33.9745957676       38.6047198539  TIP3      3472            0.0000000000
     32735      3664  TIP3      H1              8.8140617511       33.4786326385       37.8868921157  TIP3      3472            0.0000000000
     32736      3664  TIP3      H2              8.7724902918       33.5838029718       39.3625560587  TIP3      3472            0.0000000000
     32737      3665  TIP3      OH2             7.5323713132       33.5212891752       41.4925763768  TIP3      3473            0.0000000000
     32738      3665  TIP3      H1              7.8682610474       32.9250478400       42.1691326558  TIP3      3473            0.0000000000
     32739      3665  TIP3      H2              8.1943320410       34.2253722838       41.5463417193  TIP3      3473            0.0000000000
     32740      3666  TIP3      OH2             4.1897702975       30.8279361973       41.8369250845  TIP3      3474            0.0000000000
     32741      3666  TIP3      H1              3.6267300237       30.2887189103       42.4376056615  TIP3      3474            0.0000000000
     32742      3666  TIP3      H2              5.0471303176       30.7017660552       42.2855603518  TIP3      3474            0.0000000000
     32743      3667  TIP3      OH2             9.9498170447       34.9281173068       41.5685783925  TIP3      3475            0.0000000000
     32744      3667  TIP3      H1              9.4035809639       35.6851555844       41.8979362300  TIP3      3475            0.0000000000
     32745      3667  TIP3      H2             10.4479348567       35.3765415658       40.8360114452  TIP3      3475            0.0000000000
     32746      3668  TIP3      OH2             8.3579789215      -36.5465583564       42.5292717142  TIP3      3476            0.0000000000
     32747      3668  TIP3      H1              8.0275296146      -35.6417411208       42.5369953733  TIP3      3476            0.0000000000
     32748      3668  TIP3      H2              7.6099745216      -37.0036559951       42.9408080806  TIP3      3476            0.0000000000
     32749      3669  TIP3      OH2             6.2418395620       22.7656027275       41.2303840401  TIP3      3477            0.0000000000
     32750      3669  TIP3      H1              6.2994892557       23.3854113404       41.9800517299  TIP3      3477            0.0000000000
     32751      3669  TIP3      H2              7.1395198922       22.3882905797       41.2593555474  TIP3      3477            0.0000000000
     32752      3670  TIP3      OH2             4.4281459608       33.7466020884       40.3624476813  TIP3      3478            0.0000000000
     32753      3670  TIP3      H1              4.7057698418       34.2666927586       41.1297251240  TIP3      3478            0.0000000000
     32754      3670  TIP3      H2              5.0854351149       33.0264045067       40.3488780698  TIP3      3478            0.0000000000
     32755      3671  TIP3      OH2             3.0122437882       26.0760969753       39.9498452841  TIP3      3479            0.0000000000
     32756      3671  TIP3      H1              3.4303711900       26.9459760154       39.8604258991  TIP3      3479            0.0000000000
     32757      3671  TIP3      H2              2.1621595272       26.2032442385       39.5245740852  TIP3      3479            0.0000000000
     32758      3672  TIP3      OH2            11.0123169468       36.0692778677       39.3220881656  TIP3      3480            0.0000000000
     32759      3672  TIP3      H1             10.4923257574       35.3420011603       38.9103280346  TIP3      3480            0.0000000000
     32760      3672  TIP3      H2             11.8454618576       35.9691682183       38.8248915219  TIP3      3480            0.0000000000
     32761      3673  TIP3      OH2            15.2059598714       35.3478441312       38.9754108418  TIP3      3481            0.0000000000
     32762      3673  TIP3      H1             15.7320560156       34.9207242645       39.6726002355  TIP3      3481            0.0000000000
     32763      3673  TIP3      H2             15.9355477007       35.7002397179       38.4059223154  TIP3      3481            0.0000000000
     32764      3674  TIP3      OH2             6.5722633229       31.4813638827       38.8012952487  TIP3      3482            0.0000000000
     32765      3674  TIP3      H1              6.7414979731       31.0806866492       39.6670881973  TIP3      3482            0.0000000000
     32766      3674  TIP3      H2              7.3507049551       31.1640066863       38.2869698727  TIP3      3482            0.0000000000
     32767      3675  TIP3      OH2            12.2662385745       32.6236587800       39.0329166632  TIP3      3483            0.0000000000
     32768      3675  TIP3      H1             12.1413631746       32.4971079747       39.9961407034  TIP3      3483            0.0000000000
     32769      3675  TIP3      H2             12.1217928393       31.7076942344       38.7002633932  TIP3      3483            0.0000000000
     32770      3676  TIP3      OH2             7.4516175679       29.4955098624       41.0806796535  TIP3      3484            0.0000000000
     32771      3676  TIP3      H1              7.1421559488       28.8003402409       41.6820441296  TIP3      3484            0.0000000000
     32772      3676  TIP3      H2              7.8104522008       28.9863008241       40.3238626839  TIP3      3484            0.0000000000
     32773      3677  TIP3      OH2             8.7377090431       27.8873507926       39.3533426041  TIP3      3485            0.0000000000
     32774      3677  TIP3      H1              8.8178122848       28.1383990147       38.4019104630  TIP3      3485            0.0000000000
     32775      3677  TIP3      H2              9.6858817431       27.8352613819       39.6145676787  TIP3      3485            0.0000000000
     32776      3678  TIP3      OH2            18.1645318727       30.0639100975       39.0632566522  TIP3      3486            0.0000000000
     32777      3678  TIP3      H1             17.8941326735       29.7080493449       38.1841039512  TIP3      3486            0.0000000000
     32778      3678  TIP3      H2             18.0812864302       31.0317572587       38.8871620315  TIP3      3486            0.0000000000
     32779      3679  TIP3      OH2             1.7707339552       33.1325671566       40.6409205869  TIP3      3487            0.0000000000
     32780      3679  TIP3      H1              2.7458277640       33.1425270212       40.4643589943  TIP3      3487            0.0000000000
     32781      3679  TIP3      H2              1.4784891353       32.5326923785       39.9381050580  TIP3      3487            0.0000000000
     32782      3680  TIP3      OH2            19.6404067225       28.8311483661       40.9827891184  TIP3      3488            0.0000000000
     32783      3680  TIP3      H1             19.2014904707       29.1080408773       40.1483710351  TIP3      3488            0.0000000000
     32784      3680  TIP3      H2             19.1011676132       29.3250496393       41.6233838232  TIP3      3488            0.0000000000
     32785      3681  TIP3      OH2            17.8786839522       25.8905513480       39.4128828794  TIP3      3489            0.0000000000
     32786      3681  TIP3      H1             17.8757902489       26.5526095300       38.7064165410  TIP3      3489            0.0000000000
     32787      3681  TIP3      H2             17.3655843810       25.1726941375       38.9884008065  TIP3      3489            0.0000000000
     32788      3682  TIP3      OH2            16.9581382804       23.2730463142       39.0164070280  TIP3      3490            0.0000000000
     32789      3682  TIP3      H1             17.6607356962       22.9020022763       39.6013402954  TIP3      3490            0.0000000000
     32790      3682  TIP3      H2             16.2658956010       23.4636738843       39.6731080425  TIP3      3490            0.0000000000
     32791      3683  TIP3      OH2            19.0257091832       22.1136463353       40.6099007862  TIP3      3491            0.0000000000
     32792      3683  TIP3      H1             19.3099982762       21.5389729294       39.8508193795  TIP3      3491            0.0000000000
     32793      3683  TIP3      H2             19.8810231993       22.4253366789       40.9553881443  TIP3      3491            0.0000000000
     32794      3684  TIP3      OH2             2.8547641540       20.8081788207       41.3349714283  TIP3      3492            0.0000000000
     32795      3684  TIP3      H1              2.9048197293       21.5851970863       40.7378966587  TIP3      3492            0.0000000000
     32796      3684  TIP3      H2              3.1982246974       21.2100475226       42.1590770606  TIP3      3492            0.0000000000
     32797      3685  TIP3      OH2             4.0115884142       22.6648692666       39.7526277704  TIP3      3493            0.0000000000
     32798      3685  TIP3      H1              4.6117722626       22.0725382578       39.2523127676  TIP3      3493            0.0000000000
     32799      3685  TIP3      H2              4.5195767738       22.7438404786       40.5888720368  TIP3      3493            0.0000000000
     32800      3686  TIP3      OH2            30.1644983296       27.6027976228       40.1351850883  TIP3      3494            0.0000000000
     32801      3686  TIP3      H1             30.6952996358       28.1534214762       40.7510461745  TIP3      3494            0.0000000000
     32802      3686  TIP3      H2             30.7275899441       26.8133922769       40.1074055362  TIP3      3494            0.0000000000
     32803      3687  TIP3      OH2            32.3580917699       28.7180590492       41.4729245825  TIP3      3495            0.0000000000
     32804      3687  TIP3      H1             32.9605525028       28.8319357322       42.2266416144  TIP3      3495            0.0000000000
     32805      3687  TIP3      H2             32.9038541152       28.9879653780       40.7113939163  TIP3      3495            0.0000000000
     32806      3688  TIP3      OH2            36.1210197667       20.7774733435       41.7087987759  TIP3      3496            0.0000000000
     32807      3688  TIP3      H1             35.2990494747       21.1976485249       41.4502956517  TIP3      3496            0.0000000000
     32808      3688  TIP3      H2             36.3874755245       20.2621315477       40.9267290859  TIP3      3496            0.0000000000
     32809      3689  TIP3      OH2            34.3157561989       29.8120037401       39.9186395119  TIP3      3497            0.0000000000
     32810      3689  TIP3      H1             33.8718423031       29.9410662152       39.0549694117  TIP3      3497            0.0000000000
     32811      3689  TIP3      H2             34.4410037473       30.7479950990       40.1490452016  TIP3      3497            0.0000000000
     32812      3690  TIP3      OH2            29.8044257742       23.4953170615       39.9698832125  TIP3      3498            0.0000000000
     32813      3690  TIP3      H1             29.2723889029       23.8273946416       40.7049321847  TIP3      3498            0.0000000000
     32814      3690  TIP3      H2             29.4727755910       22.5954213558       39.8767946545  TIP3      3498            0.0000000000
     32815      3691  TIP3      OH2            26.1679009934       23.8829167729       39.0716777361  TIP3      3499            0.0000000000
     32816      3691  TIP3      H1             25.6075916066       23.4376392923       39.7469789735  TIP3      3499            0.0000000000
     32817      3691  TIP3      H2             25.6246935414       24.6744514070       38.8837186794  TIP3      3499            0.0000000000
     32818      3692  TIP3      OH2            20.8418186497       23.8892393716       41.6118736354  TIP3      3500            0.0000000000
     32819      3692  TIP3      H1             21.4077158984       24.3671940137       40.9722769879  TIP3      3500            0.0000000000
     32820      3692  TIP3      H2             20.2139166293       24.6019298759       41.8165423150  TIP3      3500            0.0000000000
     32821      3693  TIP3      OH2            25.4829539214       26.5929723574       40.5908218992  TIP3      3501            0.0000000000
     32822      3693  TIP3      H1             25.0731661045       26.2255022089       39.7810419921  TIP3      3501            0.0000000000
     32823      3693  TIP3      H2             26.3335530606       26.8955239693       40.2159272135  TIP3      3501            0.0000000000
     32824      3694  TIP3      OH2            32.5245006128       23.8547517738       40.3926877017  TIP3      3502            0.0000000000
     32825      3694  TIP3      H1             31.5488619567       23.7801021881       40.4499594483  TIP3      3502            0.0000000000
     32826      3694  TIP3      H2             32.7147644078       24.5725814087       41.0247521810  TIP3      3502            0.0000000000
     32827      3695  TIP3      OH2            33.2345565949       26.0199967308       42.1426297590  TIP3      3503            0.0000000000
     32828      3695  TIP3      H1             34.1072996652       25.5851990824       42.0565368858  TIP3      3503            0.0000000000
     32829      3695  TIP3      H2             33.2233596966       26.6781944706       41.4246844882  TIP3      3503            0.0000000000
     32830      3696  TIP3      OH2            30.5582728788       32.7325470101       41.8842995553  TIP3      3504            0.0000000000
     32831      3696  TIP3      H1             29.9658591609       33.5209411809       41.8402757512  TIP3      3504            0.0000000000
     32832      3696  TIP3      H2             29.9825982870       32.0697926360       42.2807776174  TIP3      3504            0.0000000000
     32833      3697  TIP3      OH2            22.3897138297       29.3672544217       39.8835196613  TIP3      3505            0.0000000000
     32834      3697  TIP3      H1             22.7162543447       30.0094188987       40.5580062584  TIP3      3505            0.0000000000
     32835      3697  TIP3      H2             21.5229173175       29.1192453758       40.2578472825  TIP3      3505            0.0000000000
     32836      3698  TIP3      OH2            33.6116466023       32.4752109961       40.5131455364  TIP3      3506            0.0000000000
     32837      3698  TIP3      H1             33.6416598281       33.2762048861       41.0644142595  TIP3      3506            0.0000000000
     32838      3698  TIP3      H2             32.6844517047       32.4996015799       40.1878006798  TIP3      3506            0.0000000000
     32839      3699  TIP3      OH2            28.0762335614       33.9557281931       38.6104970027  TIP3      3507            0.0000000000
     32840      3699  TIP3      H1             27.6242461000       33.4136302310       37.9389820043  TIP3      3507            0.0000000000
     32841      3699  TIP3      H2             27.5048930458       33.7794495686       39.3833852689  TIP3      3507            0.0000000000
     32842      3700  TIP3      OH2            26.4184333991       33.3992774231       41.4716576916  TIP3      3508            0.0000000000
     32843      3700  TIP3      H1             26.9252652285       32.9815360391       42.1788322669  TIP3      3508            0.0000000000
     32844      3700  TIP3      H2             26.6176081862       34.3420824615       41.6302775725  TIP3      3508            0.0000000000
     32845      3701  TIP3      OH2            23.1001360483       30.8783141159       41.9534070254  TIP3      3509            0.0000000000
     32846      3701  TIP3      H1             22.5861721089       30.1809983490       42.4251534382  TIP3      3509            0.0000000000
     32847      3701  TIP3      H2             23.9327979459       30.8405483302       42.4718057698  TIP3      3509            0.0000000000
     32848      3702  TIP3      OH2            29.0163386755       34.8781929239       41.6347841146  TIP3      3510            0.0000000000
     32849      3702  TIP3      H1             28.1993804219       35.4067273736       41.8067556447  TIP3      3510            0.0000000000
     32850      3702  TIP3      H2             29.3937921114       35.3742702207       40.8702198384  TIP3      3510            0.0000000000
     32851      3703  TIP3      OH2            26.7402788146       36.0226569110       42.0849242374  TIP3      3511            0.0000000000
     32852      3703  TIP3      H1             26.3018820322       36.2636952096       41.2504721509  TIP3      3511            0.0000000000
     32853      3703  TIP3      H2             26.2590574873       36.5295495355       42.7556070200  TIP3      3511            0.0000000000
     32854      3704  TIP3      OH2            24.9527367082       22.9317290711       41.3076119310  TIP3      3512            0.0000000000
     32855      3704  TIP3      H1             25.1978631345       23.4915674957       42.0802865566  TIP3      3512            0.0000000000
     32856      3704  TIP3      H2             25.8023733504       22.4932979634       41.1637717395  TIP3      3512            0.0000000000
     32857      3705  TIP3      OH2            23.2637710610       33.7874605786       40.3876091397  TIP3      3513            0.0000000000
     32858      3705  TIP3      H1             23.5686849641       34.3788084330       41.0923575915  TIP3      3513            0.0000000000
     32859      3705  TIP3      H2             23.9148958785       33.0597485559       40.4496419762  TIP3      3513            0.0000000000
     32860      3706  TIP3      OH2            21.8464514593       26.0041301686       40.1078754394  TIP3      3514            0.0000000000
     32861      3706  TIP3      H1             22.4035791328       26.7963533277       40.0992249849  TIP3      3514            0.0000000000
     32862      3706  TIP3      H2             21.1199546770       26.2150859221       39.5109327677  TIP3      3514            0.0000000000
     32863      3707  TIP3      OH2            29.8660188654       35.8911420001       39.3289308032  TIP3      3515            0.0000000000
     32864      3707  TIP3      H1             29.3147565936       35.1589528537       38.9656574382  TIP3      3515            0.0000000000
     32865      3707  TIP3      H2             30.6823674593       35.7296105198       38.8237215557  TIP3      3515            0.0000000000
     32866      3708  TIP3      OH2            34.3336932917       35.2848233109       38.8873293054  TIP3      3516            0.0000000000
     32867      3708  TIP3      H1             34.7995684432       35.2682075832       39.7333929179  TIP3      3516            0.0000000000
     32868      3708  TIP3      H2             35.0102007154       35.7122402228       38.3080555314  TIP3      3516            0.0000000000
     32869      3709  TIP3      OH2            25.5475109554       31.5266187444       38.8883800831  TIP3      3517            0.0000000000
     32870      3709  TIP3      H1             25.8591740814       31.3308658580       39.7904815018  TIP3      3517            0.0000000000
     32871      3709  TIP3      H2             26.2778626260       31.1889605266       38.3176075132  TIP3      3517            0.0000000000
     32872      3710  TIP3      OH2            31.1531558773       32.5998141537       39.0644180326  TIP3      3518            0.0000000000
     32873      3710  TIP3      H1             30.8481516926       32.6134939758       39.9934392751  TIP3      3518            0.0000000000
     32874      3710  TIP3      H2             30.8430751538       31.7084673063       38.7588760110  TIP3      3518            0.0000000000
     32875      3711  TIP3      OH2            26.4747586731       29.4999590854       41.1861897327  TIP3      3519            0.0000000000
     32876      3711  TIP3      H1             25.9210116530       28.8214267057       41.6006933638  TIP3      3519            0.0000000000
     32877      3711  TIP3      H2             26.7681538370       29.0372565459       40.3769783694  TIP3      3519            0.0000000000
     32878      3712  TIP3      OH2            27.6334616630       27.9275975569       39.3485267470  TIP3      3520            0.0000000000
     32879      3712  TIP3      H1             27.7283097186       28.1877611842       38.4056518796  TIP3      3520            0.0000000000
     32880      3712  TIP3      H2             28.5757853369       27.7925953753       39.6111219584  TIP3      3520            0.0000000000
     32881      3713  TIP3      OH2            20.6774215065       33.1310489873       40.4651451043  TIP3      3521            0.0000000000
     32882      3713  TIP3      H1             21.6620346943       33.1204124709       40.4060085827  TIP3      3521            0.0000000000
     32883      3713  TIP3      H2             20.4382212828       32.4283734353       39.8392637322  TIP3      3521            0.0000000000
     32884      3714  TIP3      OH2            36.4327584284       25.9064608271       39.5985794049  TIP3      3522            0.0000000000
     32885      3714  TIP3      H1             36.3649740283       26.7775916324       39.1808382541  TIP3      3522            0.0000000000
     32886      3714  TIP3      H2             36.1440955478       25.3059067633       38.8788433532  TIP3      3522            0.0000000000
     32887      3715  TIP3      OH2            35.8464224634       23.3126844173       38.8785110469  TIP3      3523            0.0000000000
     32888      3715  TIP3      H1             35.9726949383       23.3013595377       39.8384289267  TIP3      3523            0.0000000000
     32889      3715  TIP3      H2             34.8793763787       23.2605303191       38.8067728297  TIP3      3523            0.0000000000
     32890      3716  TIP3      OH2            21.6754769351       20.7968743775       41.3886740876  TIP3      3524            0.0000000000
     32891      3716  TIP3      H1             21.8010269575       21.5268813507       40.7418670149  TIP3      3524            0.0000000000
     32892      3716  TIP3      H2             22.1099767927       21.2078495732       42.1649206570  TIP3      3524            0.0000000000
     32893      3717  TIP3      OH2            22.8677267747       22.5411024358       39.7299573073  TIP3      3525            0.0000000000
     32894      3717  TIP3      H1             23.4682244843       21.9308532892       39.2517862293  TIP3      3525            0.0000000000
     32895      3717  TIP3      H2             23.4104908903       22.7753437653       40.5193692234  TIP3      3525            0.0000000000
     32896      3718  TIP3      OH2           -24.8593744880      -26.6511699601      -35.9095167576  TIP3      3526            0.0000000000
     32897      3718  TIP3      H1            -24.8996751797      -25.7949411893      -36.3931518013  TIP3      3526            0.0000000000
     32898      3718  TIP3      H2            -25.3939433494      -27.1955987843      -36.5152393572  TIP3      3526            0.0000000000
     32899      3719  TIP3      OH2           -26.0099206277      -27.5414664927      -32.4503129003  TIP3      3527            0.0000000000
     32900      3719  TIP3      H1            -25.7766714369      -27.9157747342      -31.5725865504  TIP3      3527            0.0000000000
     32901      3719  TIP3      H2            -26.5336157650      -28.2762028139      -32.8677915529  TIP3      3527            0.0000000000
     32902      3720  TIP3      OH2           -33.7459887269      -27.5450957169      -30.5305687247  TIP3      3528            0.0000000000
     32903      3720  TIP3      H1            -33.9143170544      -28.3884159438      -30.0771579865  TIP3      3528            0.0000000000
     32904      3720  TIP3      H2            -32.8399855686      -27.3249443926      -30.2500626274  TIP3      3528            0.0000000000
     32905      3721  TIP3      OH2           -22.8716725506      -24.5458121481      -33.6593202392  TIP3      3529            0.0000000000
     32906      3721  TIP3      H1            -22.5735611493      -25.2147980759      -33.0134955156  TIP3      3529            0.0000000000
     32907      3721  TIP3      H2            -22.4681712832      -23.7452793054      -33.2683049952  TIP3      3529            0.0000000000
     32908      3722  TIP3      OH2           -32.7948704183      -23.2027259258      -32.6099435946  TIP3      3530            0.0000000000
     32909      3722  TIP3      H1            -33.0782213242      -24.1058130710      -32.8501612352  TIP3      3530            0.0000000000
     32910      3722  TIP3      H2            -31.8266156150      -23.3447530218      -32.6044393965  TIP3      3530            0.0000000000
     32911      3723  TIP3      OH2           -35.7879901457      -29.8109806412      -37.0711449001  TIP3      3531            0.0000000000
     32912      3723  TIP3      H1            -36.1112900246      -29.0330832209      -36.6101789142  TIP3      3531            0.0000000000
     32913      3723  TIP3      H2            -36.6278845402      -30.2967842937      -37.1587115421  TIP3      3531            0.0000000000
     32914      3724  TIP3      OH2           -35.9261287428      -27.6539076246      -34.1392105207  TIP3      3532            0.0000000000
     32915      3724  TIP3      H1            -35.5173064474      -28.5408405871      -34.0366601575  TIP3      3532            0.0000000000
     32916      3724  TIP3      H2            -35.2511135722      -27.1635461163      -34.6300850333  TIP3      3532            0.0000000000
     32917      3725  TIP3      OH2           -25.2531806586      -19.0478971280      -33.9970719713  TIP3      3533            0.0000000000
     32918      3725  TIP3      H1            -24.6668258432      -19.6710626484      -34.4876765413  TIP3      3533            0.0000000000
     32919      3725  TIP3      H2            -25.6257344984      -19.6837446376      -33.3786114798  TIP3      3533            0.0000000000
     32920      3726  TIP3      OH2           -27.3958863029      -25.4759256534      -31.6124756780  TIP3      3534            0.0000000000
     32921      3726  TIP3      H1            -26.9224348281      -26.3154370782      -31.8487391888  TIP3      3534            0.0000000000
     32922      3726  TIP3      H2            -26.7081011875      -25.0647761376      -31.0422480965  TIP3      3534            0.0000000000
     32923      3727  TIP3      OH2           -19.1997048472      -33.8009155225      -31.0640782967  TIP3      3535            0.0000000000
     32924      3727  TIP3      H1            -19.0396494384      -33.2217892021      -30.2873254085  TIP3      3535            0.0000000000
     32925      3727  TIP3      H2            -18.6496004006      -33.3533368517      -31.7337213217  TIP3      3535            0.0000000000
     32926      3728  TIP3      OH2           -24.0314647687      -30.5504542455      -31.1929588358  TIP3      3536            0.0000000000
     32927      3728  TIP3      H1            -23.9341567673      -31.4098400546      -30.7522929130  TIP3      3536            0.0000000000
     32928      3728  TIP3      H2            -24.0064783191      -30.8018842565      -32.1343358588  TIP3      3536            0.0000000000
     32929      3729  TIP3      OH2           -31.3872378152      -32.2201648509      -34.3892115657  TIP3      3537            0.0000000000
     32930      3729  TIP3      H1            -30.9177968146      -31.6007119683      -34.9729178187  TIP3      3537            0.0000000000
     32931      3729  TIP3      H2            -31.6754168078      -32.8844867905      -35.0464131312  TIP3      3537            0.0000000000
     32932      3730  TIP3      OH2           -23.6864474595      -32.4457316559      -35.7370594550  TIP3      3538            0.0000000000
     32933      3730  TIP3      H1            -23.0494700524      -32.6626881486      -35.0240527187  TIP3      3538            0.0000000000
     32934      3730  TIP3      H2            -23.1407248715      -31.8035489244      -36.2280875240  TIP3      3538            0.0000000000
     32935      3731  TIP3      OH2           -34.7658387224      -30.1873597810      -33.5403630606  TIP3      3539            0.0000000000
     32936      3731  TIP3      H1            -34.0645492648      -30.4530320904      -32.9122440540  TIP3      3539            0.0000000000
     32937      3731  TIP3      H2            -34.4750890806      -30.6682502823      -34.3405909980  TIP3      3539            0.0000000000
     32938      3732  TIP3      OH2           -29.9803134088      -28.2344363539      -34.1727909275  TIP3      3540            0.0000000000
     32939      3732  TIP3      H1            -29.2232819586      -28.6987104542      -33.7926709077  TIP3      3540            0.0000000000
     32940      3732  TIP3      H2            -30.2940080114      -28.8989117075      -34.8299898925  TIP3      3540            0.0000000000
     32941      3733  TIP3      OH2           -18.8592216873      -32.2839220874      -28.6940416378  TIP3      3541            0.0000000000
     32942      3733  TIP3      H1            -19.1938359581      -31.4133836143      -29.0340019887  TIP3      3541            0.0000000000
     32943      3733  TIP3      H2            -18.5395067976      -32.0171217247      -27.8246507640  TIP3      3541            0.0000000000
     32944      3734  TIP3      OH2           -32.4589485612      -33.4559196152      -30.1781530957  TIP3      3542            0.0000000000
     32945      3734  TIP3      H1            -32.8732446950      -33.0783328052      -30.9743903282  TIP3      3542            0.0000000000
     32946      3734  TIP3      H2            -33.1437400419      -33.2514518729      -29.4943637851  TIP3      3542            0.0000000000
     32947      3735  TIP3      OH2           -25.4218132194      -24.2116869015      -36.7093521449  TIP3      3543            0.0000000000
     32948      3735  TIP3      H1            -25.6439725170      -24.2136642242      -37.6667469403  TIP3      3543            0.0000000000
     32949      3735  TIP3      H2            -25.6739022611      -23.2865123806      -36.4833614868  TIP3      3543            0.0000000000
     32950      3736  TIP3      OH2           -29.8032131018      -25.8213782839      -30.3589935721  TIP3      3544            0.0000000000
     32951      3736  TIP3      H1            -30.3859930668      -25.0434617453      -30.1655829293  TIP3      3544            0.0000000000
     32952      3736  TIP3      H2            -29.0964175040      -25.4282980744      -30.9040028601  TIP3      3544            0.0000000000
     32953      3737  TIP3      OH2           -21.6249962293      -32.2062361927      -33.7875277674  TIP3      3545            0.0000000000
     32954      3737  TIP3      H1            -21.5607055019      -32.9893302231      -33.2282982313  TIP3      3545            0.0000000000
     32955      3737  TIP3      H2            -21.1084690023      -31.5753487861      -33.2399359062  TIP3      3545            0.0000000000
     32956      3738  TIP3      OH2           -32.8321091312      -31.7376317055      -32.2098639230  TIP3      3546            0.0000000000
     32957      3738  TIP3      H1            -32.1298537654      -31.2601587655      -31.7039797369  TIP3      3546            0.0000000000
     32958      3738  TIP3      H2            -32.3212428574      -31.9123029669      -33.0395388787  TIP3      3546            0.0000000000
     32959      3739  TIP3      OH2           -31.3257542707      -23.7337855813      -29.6705392458  TIP3      3547            0.0000000000
     32960      3739  TIP3      H1            -31.5517557592      -22.8324366529      -29.9429645612  TIP3      3547            0.0000000000
     32961      3739  TIP3      H2            -32.1059685602      -23.9391410648      -29.1015852253  TIP3      3547            0.0000000000
     32962      3740  TIP3      OH2           -35.9268643521      -23.9405573167      -38.3484750053  TIP3      3548            0.0000000000
     32963      3740  TIP3      H1            -35.6646409040      -23.4881412373      -39.1727748779  TIP3      3548            0.0000000000
     32964      3740  TIP3      H2            -35.4609109879      -23.4551509317      -37.6325145331  TIP3      3548            0.0000000000
     32965      3741  TIP3      OH2           -21.8772770558      -22.5288422909      -31.8874625153  TIP3      3549            0.0000000000
     32966      3741  TIP3      H1            -22.7477517977      -22.4021919749      -31.4647866153  TIP3      3549            0.0000000000
     32967      3741  TIP3      H2            -21.6792919998      -21.6248027035      -32.2066601671  TIP3      3549            0.0000000000
     32968      3742  TIP3      OH2           -21.6184652794      -33.2999343518      -29.6554357456  TIP3      3550            0.0000000000
     32969      3742  TIP3      H1            -22.2298645103      -32.9658409684      -30.3314488413  TIP3      3550            0.0000000000
     32970      3742  TIP3      H2            -21.0071292621      -33.8133794317      -30.2049142573  TIP3      3550            0.0000000000
     32971      3743  TIP3      OH2           -28.4730900350      -35.6482849881      -32.9631488979  TIP3      3551            0.0000000000
     32972      3743  TIP3      H1            -29.2253056562      -36.2831653281      -32.8466699925  TIP3      3551            0.0000000000
     32973      3743  TIP3      H2            -28.9605383350      -34.8689219633      -32.6130354320  TIP3      3551            0.0000000000
     32974      3744  TIP3      OH2           -23.6493950978      -20.7672346529      -35.2257126156  TIP3      3552            0.0000000000
     32975      3744  TIP3      H1            -23.3275319011      -21.5830065370      -35.6577491356  TIP3      3552            0.0000000000
     32976      3744  TIP3      H2            -22.9121757931      -20.1411758389      -35.4596559165  TIP3      3552            0.0000000000
     32977      3745  TIP3      OH2           -22.7434722600      -22.9284149031      -36.6071018335  TIP3      3553            0.0000000000
     32978      3745  TIP3      H1            -22.6695185080      -23.5453029485      -37.3548082564  TIP3      3553            0.0000000000
     32979      3745  TIP3      H2            -22.6429650970      -23.5322105251      -35.8586676938  TIP3      3553            0.0000000000
     32980      3746  TIP3      OH2           -20.7840149016      -24.2330998276      -27.9098231175  TIP3      3554            0.0000000000
     32981      3746  TIP3      H1            -20.8688388926      -24.9661121843      -28.5709789006  TIP3      3554            0.0000000000
     32982      3746  TIP3      H2            -20.5787697605      -23.4839700430      -28.4989614697  TIP3      3554            0.0000000000
     32983      3747  TIP3      OH2           -26.1173482474      -27.2235052682      -38.3194810253  TIP3      3555            0.0000000000
     32984      3747  TIP3      H1            -26.8881546771      -26.7131390746      -38.6586215836  TIP3      3555            0.0000000000
     32985      3747  TIP3      H2            -25.3885473713      -26.9566609187      -38.9088177451  TIP3      3555            0.0000000000
     32986      3748  TIP3      OH2           -26.2024474479      -28.4589639496      -41.0307861117  TIP3      3556            0.0000000000
     32987      3748  TIP3      H1            -25.5337721875      -28.2263604757      -40.3523121889  TIP3      3556            0.0000000000
     32988      3748  TIP3      H2            -25.6049303003      -28.7610797768      -41.7304234969  TIP3      3556            0.0000000000
     32989      3749  TIP3      OH2           -18.8568893557      -27.8409108971      -30.0553990505  TIP3      3557            0.0000000000
     32990      3749  TIP3      H1            -19.6160378020      -27.2339325589      -30.1775137763  TIP3      3557            0.0000000000
     32991      3749  TIP3      H2            -18.1785843155      -27.3546089215      -30.5758197438  TIP3      3557            0.0000000000
     32992      3750  TIP3      OH2           -22.5573464527      -27.6776762597      -37.3625563144  TIP3      3558            0.0000000000
     32993      3750  TIP3      H1            -23.2236210844      -27.4472834257      -36.6806068854  TIP3      3558            0.0000000000
     32994      3750  TIP3      H2            -21.8566815713      -28.0931347101      -36.7959419811  TIP3      3558            0.0000000000
     32995      3751  TIP3      OH2           -22.6033833369      -28.8543467962      -28.0406688384  TIP3      3559            0.0000000000
     32996      3751  TIP3      H1            -22.6837862701      -27.9618302076      -27.6632456859  TIP3      3559            0.0000000000
     32997      3751  TIP3      H2            -23.2988375452      -28.8271036824      -28.7233650854  TIP3      3559            0.0000000000
     32998      3752  TIP3      OH2           -31.1717779820      -26.2593835934      -35.5143256054  TIP3      3560            0.0000000000
     32999      3752  TIP3      H1            -31.4039865652      -26.7438941111      -36.3305284171  TIP3      3560            0.0000000000
     33000      3752  TIP3      H2            -30.7172880725      -26.9557176366      -34.9879283492  TIP3      3560            0.0000000000
     33001      3753  TIP3      OH2           -29.8208995257      -23.5048546093      -32.8389680387  TIP3      3561            0.0000000000
     33002      3753  TIP3      H1            -29.7029169007      -23.6985453786      -33.7764863306  TIP3      3561            0.0000000000
     33003      3753  TIP3      H2            -28.9948460362      -23.8107206264      -32.4484906563  TIP3      3561            0.0000000000
     33004      3754  TIP3      OH2           -30.9304092597      -27.8514866927      -31.6464477268  TIP3      3562            0.0000000000
     33005      3754  TIP3      H1            -30.7133598379      -27.7525718253      -32.5950675160  TIP3      3562            0.0000000000
     33006      3754  TIP3      H2            -30.4800776966      -27.0914371452      -31.2127034041  TIP3      3562            0.0000000000
     33007      3755  TIP3      OH2           -24.4040596744      -22.2273293702      -30.8796325774  TIP3      3563            0.0000000000
     33008      3755  TIP3      H1            -24.5965439678      -21.6173417437      -30.1469363244  TIP3      3563            0.0000000000
     33009      3755  TIP3      H2            -24.6594735779      -23.1020787255      -30.5276407808  TIP3      3563            0.0000000000
     33010      3756  TIP3      OH2           -29.8806495614      -23.5174190716      -27.3033667151  TIP3      3564            0.0000000000
     33011      3756  TIP3      H1            -30.5929141309      -23.0774281718      -26.7943547922  TIP3      3564            0.0000000000
     33012      3756  TIP3      H2            -30.3489536076      -23.7121391335      -28.1472888364  TIP3      3564            0.0000000000
     33013      3757  TIP3      OH2           -23.8881036746      -27.9768146374      -39.6327382999  TIP3      3565            0.0000000000
     33014      3757  TIP3      H1            -23.3524239464      -27.9047269843      -38.8050323213  TIP3      3565            0.0000000000
     33015      3757  TIP3      H2            -23.4067687964      -27.3538196538      -40.2284306914  TIP3      3565            0.0000000000
     33016      3758  TIP3      OH2           -32.4970198662      -26.9602307014      -27.7783050390  TIP3      3566            0.0000000000
     33017      3758  TIP3      H1            -32.5929010172      -26.3375803777      -27.0304588039  TIP3      3566            0.0000000000
     33018      3758  TIP3      H2            -33.3982566973      -27.3228403163      -27.8187399169  TIP3      3566            0.0000000000
     33019      3759  TIP3      OH2           -26.4629857529      -21.7060277732      -36.1887431607  TIP3      3567            0.0000000000
     33020      3759  TIP3      H1            -25.8553240632      -20.9748160841      -36.0160494537  TIP3      3567            0.0000000000
     33021      3759  TIP3      H2            -27.0337259845      -21.3542338213      -36.8906075611  TIP3      3567            0.0000000000
     33022      3760  TIP3      OH2           -31.5290327729      -21.3351254613      -26.3691523841  TIP3      3568            0.0000000000
     33023      3760  TIP3      H1            -32.1274041254      -21.5332272682      -27.1186099386  TIP3      3568            0.0000000000
     33024      3760  TIP3      H2            -32.1297168624      -21.4935528108      -25.6272264701  TIP3      3568            0.0000000000
     33025      3761  TIP3      OH2           -19.8817628665      -36.0363448356      -39.4421725960  TIP3      3569            0.0000000000
     33026      3761  TIP3      H1            -20.8282984091      -36.2457547541      -39.2868801063  TIP3      3569            0.0000000000
     33027      3761  TIP3      H2            -19.8801151532      -35.1541240645      -39.8440017873  TIP3      3569            0.0000000000
     33028      3762  TIP3      OH2           -32.0162393536      -27.6250256928      -38.1733955377  TIP3      3570            0.0000000000
     33029      3762  TIP3      H1            -32.5064699519      -26.8168235560      -38.4235956140  TIP3      3570            0.0000000000
     33030      3762  TIP3      H2            -32.6627794303      -28.3194476625      -38.3650437964  TIP3      3570            0.0000000000
     33031      3763  TIP3      OH2           -19.1286764627      -22.0815357389      -41.3293631747  TIP3      3571            0.0000000000
     33032      3763  TIP3      H1            -18.8725775005      -21.1412231115      -41.3299967759  TIP3      3571            0.0000000000
     33033      3763  TIP3      H2            -18.2519385947      -22.5009002383      -41.2638271095  TIP3      3571            0.0000000000
     33034      3764  TIP3      OH2           -35.4109620428      -25.1452187991      -28.7268305932  TIP3      3572            0.0000000000
     33035      3764  TIP3      H1            -36.2841233222      -25.0258980853      -29.1283313397  TIP3      3572            0.0000000000
     33036      3764  TIP3      H2            -35.3610041582      -26.1172103490      -28.7310327255  TIP3      3572            0.0000000000
     33037      3765  TIP3      OH2           -35.6047531874      -22.0149222848      -32.6789261715  TIP3      3573            0.0000000000
     33038      3765  TIP3      H1            -34.9363467303      -22.7052476059      -32.8678416091  TIP3      3573            0.0000000000
     33039      3765  TIP3      H2            -35.4785988788      -21.9102158497      -31.7149851865  TIP3      3573            0.0000000000
     33040      3766  TIP3      OH2           -17.9238586583      -21.8419507128      -26.6472517640  TIP3      3574            0.0000000000
     33041      3766  TIP3      H1            -18.0893030510      -22.7867763145      -26.5222196277  TIP3      3574            0.0000000000
     33042      3766  TIP3      H2            -18.7214186632      -21.5246126347      -26.1667208623  TIP3      3574            0.0000000000
     33043      3767  TIP3      OH2           -27.7686991364      -21.8906468525      -27.1702119551  TIP3      3575            0.0000000000
     33044      3767  TIP3      H1            -26.9671426192      -22.4216616330      -27.0418503021  TIP3      3575            0.0000000000
     33045      3767  TIP3      H2            -28.4499119958      -22.5829923549      -27.3640765969  TIP3      3575            0.0000000000
     33046      3768  TIP3      OH2           -26.5593037569      -18.4296310362      -38.1179101168  TIP3      3576            0.0000000000
     33047      3768  TIP3      H1            -26.6928323437      -18.2371500951      -39.0705245713  TIP3      3576            0.0000000000
     33048      3768  TIP3      H2            -26.6587430926      -17.5396432570      -37.7157320044  TIP3      3576            0.0000000000
     33049      3769  TIP3      OH2           -32.9274084705      -19.6199615852      -35.9679096098  TIP3      3577            0.0000000000
     33050      3769  TIP3      H1            -32.6584555782      -19.8964471087      -35.0654139777  TIP3      3577            0.0000000000
     33051      3769  TIP3      H2            -33.6903422214      -20.2068348906      -36.1375111134  TIP3      3577            0.0000000000
     33052      3770  TIP3      OH2           -23.5895812094      -18.9906895632      -40.7700856332  TIP3      3578            0.0000000000
     33053      3770  TIP3      H1            -23.0273826944      -19.7374543946      -41.0577430059  TIP3      3578            0.0000000000
     33054      3770  TIP3      H2            -23.5727076758      -19.0846982125      -39.7985582809  TIP3      3578            0.0000000000
     33055      3771  TIP3      OH2           -23.9569425357      -19.2544603520      -37.9521616768  TIP3      3579            0.0000000000
     33056      3771  TIP3      H1            -24.8948162374      -18.9692310882      -37.8707592528  TIP3      3579            0.0000000000
     33057      3771  TIP3      H2            -23.9855202933      -20.1310605790      -37.5365410445  TIP3      3579            0.0000000000
     33058      3772  TIP3      OH2           -21.0925907334      -30.2954798497      -26.0143254654  TIP3      3580            0.0000000000
     33059      3772  TIP3      H1            -21.5850244267      -29.6144380685      -26.5164241713  TIP3      3580            0.0000000000
     33060      3772  TIP3      H2            -21.6701289270      -31.0573991676      -26.1573188899  TIP3      3580            0.0000000000
     33061      3773  TIP3      OH2           -33.3108289814      -23.5887286884      -27.8679284460  TIP3      3581            0.0000000000
     33062      3773  TIP3      H1            -33.2370234898      -24.0955634492      -27.0268028931  TIP3      3581            0.0000000000
     33063      3773  TIP3      H2            -34.1964509584      -23.9288400877      -28.1485885215  TIP3      3581            0.0000000000
     33064      3774  TIP3      OH2           -30.7167216183      -34.5002980997      -32.0497620215  TIP3      3582            0.0000000000
     33065      3774  TIP3      H1            -31.5324881889      -34.6895446913      -32.5362544182  TIP3      3582            0.0000000000
     33066      3774  TIP3      H2            -31.0395283169      -33.8867030467      -31.3678105416  TIP3      3582            0.0000000000
     33067      3775  TIP3      OH2           -25.9885634537      -36.0862291318      -28.3028853137  TIP3      3583            0.0000000000
     33068      3775  TIP3      H1            -25.8472309923      -36.0870061511      -27.3438723318  TIP3      3583            0.0000000000
     33069      3775  TIP3      H2            -26.9278597826      -35.8587846924      -28.3731686493  TIP3      3583            0.0000000000
     33070      3776  TIP3      OH2           -23.7365497044      -31.2850902394      -27.9232223387  TIP3      3584            0.0000000000
     33071      3776  TIP3      H1            -24.1868576638      -31.4549496224      -27.0619586557  TIP3      3584            0.0000000000
     33072      3776  TIP3      H2            -23.3168233900      -30.4118439054      -27.7701993204  TIP3      3584            0.0000000000
     33073      3777  TIP3      OH2           -22.6708954141      -26.5694721838      -41.4909352368  TIP3      3585            0.0000000000
     33074      3777  TIP3      H1            -22.7240937871      -26.2488950469      -42.4049003323  TIP3      3585            0.0000000000
     33075      3777  TIP3      H2            -21.7234371971      -26.4140652053      -41.3351948649  TIP3      3585            0.0000000000
     33076      3778  TIP3      OH2           -26.7042209294      -32.9610803119      -41.5272000830  TIP3      3586            0.0000000000
     33077      3778  TIP3      H1            -26.9390659833      -33.1087715741      -40.6022386414  TIP3      3586            0.0000000000
     33078      3778  TIP3      H2            -27.2309727640      -33.6581074825      -41.9683899810  TIP3      3586            0.0000000000
     33079      3779  TIP3      OH2           -31.0881132458      -30.3226306122      -30.8354209053  TIP3      3587            0.0000000000
     33080      3779  TIP3      H1            -31.5107817951      -30.1402522274      -29.9699048900  TIP3      3587            0.0000000000
     33081      3779  TIP3      H2            -30.9421961658      -29.3949271461      -31.1228866439  TIP3      3587            0.0000000000
     33082      3780  TIP3      OH2           -30.9071281693      -30.0509869921      -36.0759619040  TIP3      3588            0.0000000000
     33083      3780  TIP3      H1            -31.8247148907      -30.4095486176      -36.0457975458  TIP3      3588            0.0000000000
     33084      3780  TIP3      H2            -30.6929395983      -30.2361292083      -37.0106510320  TIP3      3588            0.0000000000
     33085      3781  TIP3      OH2           -25.3602351326      -29.3494450869      -36.9047884786  TIP3      3589            0.0000000000
     33086      3781  TIP3      H1            -25.7451632015      -28.6536324035      -37.4848333518  TIP3      3589            0.0000000000
     33087      3781  TIP3      H2            -24.8877379166      -29.8861790852      -37.5835775927  TIP3      3589            0.0000000000
     33088      3782  TIP3      OH2           -26.8249065617      -29.0528952207      -25.8981340862  TIP3      3590            0.0000000000
     33089      3782  TIP3      H1            -27.2874561857      -29.9142828151      -25.8245088658  TIP3      3590            0.0000000000
     33090      3782  TIP3      H2            -26.0888964899      -29.1674323698      -25.2797701184  TIP3      3590            0.0000000000
     33091      3783  TIP3      OH2           -24.3440433095      -29.9800775342      -34.1176751220  TIP3      3591            0.0000000000
     33092      3783  TIP3      H1            -24.6198601320      -29.1583429570      -34.5566571741  TIP3      3591            0.0000000000
     33093      3783  TIP3      H2            -24.5420503660      -30.6127627454      -34.8316483041  TIP3      3591            0.0000000000
     33094      3784  TIP3      OH2           -33.7950658033      -30.1510658761      -29.2917893613  TIP3      3592            0.0000000000
     33095      3784  TIP3      H1            -33.3248250156      -29.9712577330      -28.4700034395  TIP3      3592            0.0000000000
     33096      3784  TIP3      H2            -34.0342324837      -31.0850636804      -29.1845925331  TIP3      3592            0.0000000000
     33097      3785  TIP3      OH2           -29.9925464662      -32.0988702423      -41.6576183953  TIP3      3593            0.0000000000
     33098      3785  TIP3      H1            -29.8319926151      -32.9959109450      -41.3171057377  TIP3      3593            0.0000000000
     33099      3785  TIP3      H2            -29.2760415119      -32.0767788108      -42.3079176602  TIP3      3593            0.0000000000
     33100      3786  TIP3      OH2           -36.3843362854      -33.4513027555      -35.2396731378  TIP3      3594            0.0000000000
     33101      3786  TIP3      H1            -36.0569333859      -33.3383735737      -34.3292158811  TIP3      3594            0.0000000000
     33102      3786  TIP3      H2            -35.8465418955      -34.1820935293      -35.5736154458  TIP3      3594            0.0000000000
     33103      3787  TIP3      OH2           -35.6633423265      -31.8923013264      -39.5880329774  TIP3      3595            0.0000000000
     33104      3787  TIP3      H1            -34.9181401812      -32.2565557101      -40.1067290206  TIP3      3595            0.0000000000
     33105      3787  TIP3      H2            -35.8418712153      -31.0629873271      -40.0840995090  TIP3      3595            0.0000000000
     33106      3788  TIP3      OH2           -25.2119076079      -28.5053108983      -29.9506628315  TIP3      3596            0.0000000000
     33107      3788  TIP3      H1            -24.7387481644      -29.2938341231      -30.3231123971  TIP3      3596            0.0000000000
     33108      3788  TIP3      H2            -25.8690093625      -28.9697671150      -29.3917008776  TIP3      3596            0.0000000000
     33109      3789  TIP3      OH2           -28.2808036936      -32.3818258563      -34.9245544827  TIP3      3597            0.0000000000
     33110      3789  TIP3      H1            -28.9969048161      -33.0243408901      -34.8594325502  TIP3      3597            0.0000000000
     33111      3789  TIP3      H2            -27.7264191239      -32.6484219551      -34.1694124337  TIP3      3597            0.0000000000
     33112      3790  TIP3      OH2           -33.4594804348      -31.1287737647      -36.1862386310  TIP3      3598            0.0000000000
     33113      3790  TIP3      H1            -34.1537057113      -30.8607582402      -36.8244043427  TIP3      3598            0.0000000000
     33114      3790  TIP3      H2            -33.2437462928      -32.0542399381      -36.4550420454  TIP3      3598            0.0000000000
     33115      3791  TIP3      OH2           -30.4215656646      -31.0894390304      -38.4993102089  TIP3      3599            0.0000000000
     33116      3791  TIP3      H1            -29.4869973486      -30.9253638184      -38.2737288836  TIP3      3599            0.0000000000
     33117      3791  TIP3      H2            -30.5898989860      -30.4319738251      -39.2215638484  TIP3      3599            0.0000000000
     33118      3792  TIP3      OH2           -23.9260965127      -33.5383228509      -31.4919465514  TIP3      3600            0.0000000000
     33119      3792  TIP3      H1            -24.6001420134      -33.4092596633      -30.7914088637  TIP3      3600            0.0000000000
     33120      3792  TIP3      H2            -24.4737953758      -33.5881464925      -32.2928059900  TIP3      3600            0.0000000000
     33121      3793  TIP3      OH2           -31.0055508472      -29.5193325113      -40.6803494258  TIP3      3601            0.0000000000
     33122      3793  TIP3      H1            -31.3258498342      -30.1670661512      -41.3205585212  TIP3      3601            0.0000000000
     33123      3793  TIP3      H2            -30.0938671826      -29.4067179383      -41.0468841764  TIP3      3601            0.0000000000
     33124      3794  TIP3      OH2           -20.8356483084      -17.9736983059      -25.2835794285  TIP3      3602            0.0000000000
     33125      3794  TIP3      H1            -20.8054048241      -17.7146973367      -26.2203883288  TIP3      3602            0.0000000000
     33126      3794  TIP3      H2            -20.0280650748      -17.5148279210      -25.0047130333  TIP3      3602            0.0000000000
     33127      3795  TIP3      OH2           -33.0321677681      -25.1974366013      -25.7335463468  TIP3      3603            0.0000000000
     33128      3795  TIP3      H1            -32.3589992295      -25.3385826118      -25.0226305709  TIP3      3603            0.0000000000
     33129      3795  TIP3      H2            -33.8506649280      -25.2564824349      -25.2041895780  TIP3      3603            0.0000000000
     33130      3796  TIP3      OH2           -27.2400762930      -29.7786221430      -33.0111872965  TIP3      3604            0.0000000000
     33131      3796  TIP3      H1            -26.4465214439      -30.2624727885      -33.2689564591  TIP3      3604            0.0000000000
     33132      3796  TIP3      H2            -27.7734534239      -30.5054654394      -32.6611329568  TIP3      3604            0.0000000000
     33133      3797  TIP3      OH2           -32.4186268751      -33.5850721443      -36.5009425874  TIP3      3605            0.0000000000
     33134      3797  TIP3      H1            -32.8294123378      -34.4254472653      -36.2034723578  TIP3      3605            0.0000000000
     33135      3797  TIP3      H2            -32.2236216793      -33.8187376657      -37.4222716176  TIP3      3605            0.0000000000
     33136      3798  TIP3      OH2           -28.9555751489      -31.7629360574      -30.9250600434  TIP3      3606            0.0000000000
     33137      3798  TIP3      H1            -29.7580322635      -31.1769498429      -30.8987624521  TIP3      3606            0.0000000000
     33138      3798  TIP3      H2            -28.3306671818      -31.3161656174      -30.3405151217  TIP3      3606            0.0000000000
     33139      3799  TIP3      OH2           -28.0082115833      -25.3385573834      -38.3995688751  TIP3      3607            0.0000000000
     33140      3799  TIP3      H1            -28.7526349633      -25.7785637355      -38.8733897594  TIP3      3607            0.0000000000
     33141      3799  TIP3      H2            -28.4446723609      -25.0644026558      -37.5573507799  TIP3      3607            0.0000000000
     33142      3800  TIP3      OH2           -20.6615870680      -25.7538793909      -30.0706823632  TIP3      3608            0.0000000000
     33143      3800  TIP3      H1            -20.1185952327      -25.1849335077      -30.6722336837  TIP3      3608            0.0000000000
     33144      3800  TIP3      H2            -21.3609178002      -25.9945244291      -30.7060557696  TIP3      3608            0.0000000000
     33145      3801  TIP3      OH2           -24.0583873922      -32.4024777149      -40.7889585905  TIP3      3609            0.0000000000
     33146      3801  TIP3      H1            -24.9395888208      -32.4772529718      -41.2010026392  TIP3      3609            0.0000000000
     33147      3801  TIP3      H2            -24.1027254796      -31.5408530196      -40.3463426393  TIP3      3609            0.0000000000
     33148      3802  TIP3      OH2           -26.7395930219      -24.5806741691      -27.6290152676  TIP3      3610            0.0000000000
     33149      3802  TIP3      H1            -26.7453229992      -25.4757543970      -27.2561542289  TIP3      3610            0.0000000000
     33150      3802  TIP3      H2            -27.3544735138      -24.1861568666      -26.9960372663  TIP3      3610            0.0000000000
     33151      3803  TIP3      OH2           -23.9804601460      -30.5363449809      -38.7964095750  TIP3      3611            0.0000000000
     33152      3803  TIP3      H1            -23.1281993313      -30.7255370792      -38.3472637277  TIP3      3611            0.0000000000
     33153      3803  TIP3      H2            -23.7947198256      -29.7084883024      -39.2821611336  TIP3      3611            0.0000000000
     33154      3804  TIP3      OH2           -33.1378290213      -25.8431952006      -33.4192877211  TIP3      3612            0.0000000000
     33155      3804  TIP3      H1            -32.5536874701      -25.9173648903      -34.1961042832  TIP3      3612            0.0000000000
     33156      3804  TIP3      H2            -32.7733259101      -26.4826321291      -32.7907675761  TIP3      3612            0.0000000000
     33157      3805  TIP3      OH2           -25.9983998794      -24.0512345864      -39.6493379394  TIP3      3613            0.0000000000
     33158      3805  TIP3      H1            -26.3354333971      -23.1348187553      -39.4925568766  TIP3      3613            0.0000000000
     33159      3805  TIP3      H2            -26.7719115445      -24.5851401993      -39.3600975850  TIP3      3613            0.0000000000
     33160      3806  TIP3      OH2           -35.6586631467      -27.8061562860      -27.9653916773  TIP3      3614            0.0000000000
     33161      3806  TIP3      H1            -36.0033747235      -28.4466991271      -27.3190495422  TIP3      3614            0.0000000000
     33162      3806  TIP3      H2            -36.1353182495      -28.0702536269      -28.7679634242  TIP3      3614            0.0000000000
     33163      3807  TIP3      OH2           -29.3630721896      -27.8440708822      -25.9578009453  TIP3      3615            0.0000000000
     33164      3807  TIP3      H1            -29.2303501397      -28.3830236414      -26.7532716740  TIP3      3615            0.0000000000
     33165      3807  TIP3      H2            -28.5208838035      -27.9945484282      -25.4923348298  TIP3      3615            0.0000000000
     33166      3808  TIP3      OH2           -23.9263963200      -22.6947982355      -27.5019690412  TIP3      3616            0.0000000000
     33167      3808  TIP3      H1            -24.7087980360      -22.7218511187      -28.0539169223  TIP3      3616            0.0000000000
     33168      3808  TIP3      H2            -24.2306438989      -22.1797791959      -26.7351368301  TIP3      3616            0.0000000000
     33169      3809  TIP3      OH2           -18.7689968189      -30.2275392251      -38.9843025757  TIP3      3617            0.0000000000
     33170      3809  TIP3      H1            -19.3167727392      -30.4774882290      -39.7561968487  TIP3      3617            0.0000000000
     33171      3809  TIP3      H2            -18.6733014189      -29.2687276543      -39.1786414092  TIP3      3617            0.0000000000
     33172      3810  TIP3      OH2           -18.3821884081      -24.7652104087      -26.5024900346  TIP3      3618            0.0000000000
     33173      3810  TIP3      H1            -19.2139566889      -24.4710045172      -26.9398895294  TIP3      3618            0.0000000000
     33174      3810  TIP3      H2            -17.7736829138      -24.7999914122      -27.2767723057  TIP3      3618            0.0000000000
     33175      3811  TIP3      OH2           -20.5682034803      -21.5310735896      -39.0065645729  TIP3      3619            0.0000000000
     33176      3811  TIP3      H1            -20.6555373886      -22.4451202165      -38.7178918756  TIP3      3619            0.0000000000
     33177      3811  TIP3      H2            -20.1930554937      -21.6209350833      -39.9007677759  TIP3      3619            0.0000000000
     33178      3812  TIP3      OH2           -22.6446690798      -26.7391047389      -31.7399759998  TIP3      3620            0.0000000000
     33179      3812  TIP3      H1            -23.3639607269      -27.3063393636      -31.4291269098  TIP3      3620            0.0000000000
     33180      3812  TIP3      H2            -22.2155460684      -27.3648801038      -32.3699753348  TIP3      3620            0.0000000000
     33181      3813  TIP3      OH2           -30.4481054996      -22.3892834412      -35.7295897415  TIP3      3621            0.0000000000
     33182      3813  TIP3      H1            -30.2106207086      -21.4828564573      -36.0414468333  TIP3      3621            0.0000000000
     33183      3813  TIP3      H2            -31.4052849680      -22.3798731762      -35.8868441590  TIP3      3621            0.0000000000
     33184      3814  TIP3      OH2           -35.2169926679      -27.7230636405      -40.9899331652  TIP3      3622            0.0000000000
     33185      3814  TIP3      H1            -34.6114889747      -27.0044818897      -40.7495668398  TIP3      3622            0.0000000000
     33186      3814  TIP3      H2            -35.9867206561      -27.5753525612      -40.4332253583  TIP3      3622            0.0000000000
     33187      3815  TIP3      OH2           -29.0172313109      -24.5867626719      -36.0534116809  TIP3      3623            0.0000000000
     33188      3815  TIP3      H1            -29.4935037159      -23.7164832008      -36.0669353226  TIP3      3623            0.0000000000
     33189      3815  TIP3      H2            -29.7443760874      -25.1740627483      -35.7696909112  TIP3      3623            0.0000000000
     33190      3816  TIP3      OH2           -28.3970742508      -20.5597242239      -29.5012489101  TIP3      3624            0.0000000000
     33191      3816  TIP3      H1            -27.7839905924      -19.8754288639      -29.8468391257  TIP3      3624            0.0000000000
     33192      3816  TIP3      H2            -27.8662868420      -21.0410806199      -28.8364335273  TIP3      3624            0.0000000000
     33193      3817  TIP3      OH2           -30.1881542237      -19.9082223663      -36.6401124652  TIP3      3625            0.0000000000
     33194      3817  TIP3      H1            -31.1513656556      -19.7742286811      -36.5264899159  TIP3      3625            0.0000000000
     33195      3817  TIP3      H2            -29.8903475840      -19.0226968346      -36.3403763956  TIP3      3625            0.0000000000
     33196      3818  TIP3      OH2           -25.3845396784      -24.8193891930      -29.9479277707  TIP3      3626            0.0000000000
     33197      3818  TIP3      H1            -25.8794648118      -24.6545128899      -29.1048027325  TIP3      3626            0.0000000000
     33198      3818  TIP3      H2            -24.9072595755      -25.6242276495      -29.6809755293  TIP3      3626            0.0000000000
     33199      3819  TIP3      OH2           -22.7941946453      -23.4794718941      -40.5878383156  TIP3      3627            0.0000000000
     33200      3819  TIP3      H1            -22.4832415890      -23.9687230864      -39.8010149898  TIP3      3627            0.0000000000
     33201      3819  TIP3      H2            -23.7465809366      -23.6664069357      -40.5480721106  TIP3      3627            0.0000000000
     33202      3820  TIP3      OH2           -22.2034440997      -20.2825945577      -27.6402758987  TIP3      3628            0.0000000000
     33203      3820  TIP3      H1            -23.0619256878      -20.6863096232      -27.8441161046  TIP3      3628            0.0000000000
     33204      3820  TIP3      H2            -22.1716962123      -19.5420296676      -28.2918503046  TIP3      3628            0.0000000000
     33205      3821  TIP3      OH2           -18.4966364796      -19.2320724909      -40.6661277498  TIP3      3629            0.0000000000
     33206      3821  TIP3      H1            -17.9590659038      -18.5423879738      -41.0879607877  TIP3      3629            0.0000000000
     33207      3821  TIP3      H2            -19.1428147408      -18.6616771274      -40.1923163420  TIP3      3629            0.0000000000
     33208      3822  TIP3      OH2           -34.2650977398      -33.1210863973      -28.3489356090  TIP3      3630            0.0000000000
     33209      3822  TIP3      H1            -35.1379795185      -33.0309382423      -27.9471164676  TIP3      3630            0.0000000000
     33210      3822  TIP3      H2            -34.0065462692      -34.0155425560      -28.0185442623  TIP3      3630            0.0000000000
     33211      3823  TIP3      OH2           -22.0035180773      -25.0557158383      -38.4157239007  TIP3      3631            0.0000000000
     33212      3823  TIP3      H1            -22.1390314803      -25.9879553149      -38.1627149028  TIP3      3631            0.0000000000
     33213      3823  TIP3      H2            -21.0317907122      -24.9995139397      -38.4153940740  TIP3      3631            0.0000000000
     33214      3824  TIP3      OH2           -34.3407772723      -21.1557384056      -29.9690454362  TIP3      3632            0.0000000000
     33215      3824  TIP3      H1            -34.0400725841      -22.0372508204      -29.6814815639  TIP3      3632            0.0000000000
     33216      3824  TIP3      H2            -35.2442509239      -21.1249192646      -29.6172450686  TIP3      3632            0.0000000000
     33217      3825  TIP3      OH2           -29.8471050486      -22.9514199189      -40.3395754498  TIP3      3633            0.0000000000
     33218      3825  TIP3      H1            -29.4597501456      -23.5855261741      -39.7254446776  TIP3      3633            0.0000000000
     33219      3825  TIP3      H2            -29.7066321541      -22.0848963570      -39.8855298270  TIP3      3633            0.0000000000
     33220      3826  TIP3      OH2           -33.8087439753      -25.7721398087      -39.3684961309  TIP3      3634            0.0000000000
     33221      3826  TIP3      H1            -34.6212271517      -25.3327434822      -39.0466157677  TIP3      3634            0.0000000000
     33222      3826  TIP3      H2            -33.3303513269      -25.0451021908      -39.8150942087  TIP3      3634            0.0000000000
     33223      3827  TIP3      OH2           -25.3177921986      -33.1913457805      -29.1697346629  TIP3      3635            0.0000000000
     33224      3827  TIP3      H1            -24.5673676217      -32.8065279417      -28.6668481200  TIP3      3635            0.0000000000
     33225      3827  TIP3      H2            -25.4496425959      -34.0396326193      -28.7273255876  TIP3      3635            0.0000000000
     33226      3828  TIP3      OH2           -24.3749399264      -33.7347668672      -38.0134201839  TIP3      3636            0.0000000000
     33227      3828  TIP3      H1            -24.1387369365      -33.0928846693      -38.7033997489  TIP3      3636            0.0000000000
     33228      3828  TIP3      H2            -24.0701209014      -33.2815776586      -37.1935502839  TIP3      3636            0.0000000000
     33229      3829  TIP3      OH2           -26.8525884529      -21.5696213085      -39.0553649316  TIP3      3637            0.0000000000
     33230      3829  TIP3      H1            -27.6233497968      -20.9926701403      -38.9515282639  TIP3      3637            0.0000000000
     33231      3829  TIP3      H2            -26.3801455427      -21.1131214237      -39.7881540588  TIP3      3637            0.0000000000
     33232      3830  TIP3      OH2           -27.7327153866      -31.7145440718      -37.4308726786  TIP3      3638            0.0000000000
     33233      3830  TIP3      H1            -27.2070762397      -30.9028884497      -37.3605450855  TIP3      3638            0.0000000000
     33234      3830  TIP3      H2            -28.0180070286      -31.8405660782      -36.4923028584  TIP3      3638            0.0000000000
     33235      3831  TIP3      OH2           -26.4889869788      -30.4094895371      -28.3847040754  TIP3      3639            0.0000000000
     33236      3831  TIP3      H1            -26.3225694032      -30.0495290781      -27.4947066040  TIP3      3639            0.0000000000
     33237      3831  TIP3      H2            -26.1438836128      -31.3249804016      -28.3592136895  TIP3      3639            0.0000000000
     33238      3832  TIP3      OH2           -26.5285410300      -34.4979816590      -36.3301765410  TIP3      3640            0.0000000000
     33239      3832  TIP3      H1            -26.7238605871      -33.6230053380      -35.9448276213  TIP3      3640            0.0000000000
     33240      3832  TIP3      H2            -25.8499561781      -34.2480442006      -36.9961890073  TIP3      3640            0.0000000000
     33241      3833  TIP3      OH2           -29.4979731029      -20.5831684008      -39.1968465291  TIP3      3641            0.0000000000
     33242      3833  TIP3      H1            -29.2876970875      -19.7500724246      -39.6805506679  TIP3      3641            0.0000000000
     33243      3833  TIP3      H2            -29.9276188682      -20.1984740166      -38.4026932624  TIP3      3641            0.0000000000
     33244      3834  TIP3      OH2           -31.6716135262      -33.5562819112      -39.2407242123  TIP3      3642            0.0000000000
     33245      3834  TIP3      H1            -31.4518770944      -32.6548159025      -38.9243338389  TIP3      3642            0.0000000000
     33246      3834  TIP3      H2            -30.7638417075      -33.8861953897      -39.3221052791  TIP3      3642            0.0000000000
     33247      3835  TIP3      OH2           -21.0063620640      -33.1011227706      -26.7884953105  TIP3      3643            0.0000000000
     33248      3835  TIP3      H1            -21.8542382984      -33.1641918437      -27.2441213642  TIP3      3643            0.0000000000
     33249      3835  TIP3      H2            -20.4322899765      -33.0411112426      -27.5775741897  TIP3      3643            0.0000000000
     33250      3836  TIP3      OH2           -22.0622823621      -28.9623846814      -33.1957382427  TIP3      3644            0.0000000000
     33251      3836  TIP3      H1            -22.8474280251      -29.5218899446      -33.3905701823  TIP3      3644            0.0000000000
     33252      3836  TIP3      H2            -21.4999295463      -29.5686712526      -32.6767364931  TIP3      3644            0.0000000000
     33253      3837  TIP3      OH2           -32.9463321163      -23.2858096505      -40.8210082783  TIP3      3645            0.0000000000
     33254      3837  TIP3      H1            -32.2277680710      -22.7206656518      -40.5048188087  TIP3      3645            0.0000000000
     33255      3837  TIP3      H2            -32.4089499479      -23.9493155885      -41.3127545507  TIP3      3645            0.0000000000
     33256      3838  TIP3      OH2           -34.2617949336      -30.2411895660      -41.9830208116  TIP3      3646            0.0000000000
     33257      3838  TIP3      H1            -33.7231829685      -29.4518246579      -42.1228251629  TIP3      3646            0.0000000000
     33258      3838  TIP3      H2            -34.8996692165      -29.8721726780      -41.3480651509  TIP3      3646            0.0000000000
     33259      3839  TIP3      OH2           -21.1953747398      -19.7127510811      -31.7804152188  TIP3      3647            0.0000000000
     33260      3839  TIP3      H1            -21.1585042155      -18.9553670833      -32.4020547080  TIP3      3647            0.0000000000
     33261      3839  TIP3      H2            -20.2466834202      -19.9070050797      -31.7184169359  TIP3      3647            0.0000000000
     33262      3840  TIP3      OH2           -33.5095423187      -35.5777402112      -32.5101703575  TIP3      3648            0.0000000000
     33263      3840  TIP3      H1            -33.2644658181      -36.0135532988      -33.3447621065  TIP3      3648            0.0000000000
     33264      3840  TIP3      H2            -33.0597531836      -36.1178874197      -31.8355916270  TIP3      3648            0.0000000000
     33265      3841  TIP3      OH2           -34.6522524064      -21.7785243948      -36.8035461984  TIP3      3649            0.0000000000
     33266      3841  TIP3      H1            -35.4908199585      -21.4838637402      -36.4457931642  TIP3      3649            0.0000000000
     33267      3841  TIP3      H2            -34.5463506069      -21.2033568206      -37.5937762872  TIP3      3649            0.0000000000
     33268      3842  TIP3      OH2           -35.0811398451      -19.4048846109      -24.9108211284  TIP3      3650            0.0000000000
     33269      3842  TIP3      H1            -34.4657087657      -20.1503346294      -25.0062928697  TIP3      3650            0.0000000000
     33270      3842  TIP3      H2            -35.9173601582      -19.9113576613      -24.9658673374  TIP3      3650            0.0000000000
     33271      3843  TIP3      OH2           -25.9754704508      -20.4932483134      -41.3719584758  TIP3      3651            0.0000000000
     33272      3843  TIP3      H1            -26.6860546998      -20.8989172984      -41.9070582631  TIP3      3651            0.0000000000
     33273      3843  TIP3      H2            -25.2990464151      -20.3159050177      -42.0539710313  TIP3      3651            0.0000000000
     33274      3844  TIP3      OH2           -24.7099336853      -21.6473791427      -24.9005380868  TIP3      3652            0.0000000000
     33275      3844  TIP3      H1            -24.9015686984      -22.5677484149      -24.6332552971  TIP3      3652            0.0000000000
     33276      3844  TIP3      H2            -23.7741879659      -21.5333034465      -24.5999402864  TIP3      3652            0.0000000000
     33277      3845  TIP3      OH2           -21.8318065081      -20.9593591347      -42.2253598774  TIP3      3653            0.0000000000
     33278      3845  TIP3      H1            -22.0688930518      -21.7469828092      -41.6960785456  TIP3      3653            0.0000000000
     33279      3845  TIP3      H2            -20.8700000038      -21.0705688515      -42.2563640488  TIP3      3653            0.0000000000
     33280      3846  TIP3      OH2           -35.3838392001      -25.2539016181      -24.4604170028  TIP3      3654            0.0000000000
     33281      3846  TIP3      H1            -35.7386900707      -26.1002990905      -24.7670673091  TIP3      3654            0.0000000000
     33282      3846  TIP3      H2            -36.2005728396      -24.7142816259      -24.5200736165  TIP3      3654            0.0000000000
     33283      3847  TIP3      OH2           -31.2095617397      -25.2323096372      -41.6530505570  TIP3      3655            0.0000000000
     33284      3847  TIP3      H1            -30.4722303807      -25.4358828074      -41.0370495983  TIP3      3655            0.0000000000
     33285      3847  TIP3      H2            -30.7281914747      -25.1314623692      -42.4941857401  TIP3      3655            0.0000000000
     33286      3848  TIP3      OH2           -28.7755734731      -25.0745854321      -25.4948281968  TIP3      3656            0.0000000000
     33287      3848  TIP3      H1            -29.2691072631      -24.5697491695      -26.1774736995  TIP3      3656            0.0000000000
     33288      3848  TIP3      H2            -29.1241604246      -25.9825839073      -25.6387470298  TIP3      3656            0.0000000000
     33289      3849  TIP3      OH2           -23.1580713956      -25.5473297593      -27.5297062048  TIP3      3657            0.0000000000
     33290      3849  TIP3      H1            -22.2600077399      -25.1554908850      -27.4459204804  TIP3      3657            0.0000000000
     33291      3849  TIP3      H2            -23.6679305678      -24.7133094071      -27.4698885977  TIP3      3657            0.0000000000
     33292      3850  TIP3      OH2           -35.1652610865      -28.4270844446      -24.8486614167  TIP3      3658            0.0000000000
     33293      3850  TIP3      H1            -34.6466486407      -29.2118348535      -25.1037892405  TIP3      3658            0.0000000000
     33294      3850  TIP3      H2            -34.5019719204      -28.0207636078      -24.2685915313  TIP3      3658            0.0000000000
     33295      3851  TIP3      OH2           -29.7850889241      -26.7635089089      -39.9581304529  TIP3      3659            0.0000000000
     33296      3851  TIP3      H1            -30.5461417739      -27.2516328792      -39.5686208505  TIP3      3659            0.0000000000
     33297      3851  TIP3      H2            -29.4663330644      -27.4346830528      -40.5882073471  TIP3      3659            0.0000000000
     33298      3852  TIP3      OH2           -31.0049172747      -29.2823856906      -28.3972455302  TIP3      3660            0.0000000000
     33299      3852  TIP3      H1            -31.4738730571      -28.5543329697      -27.9478849359  TIP3      3660            0.0000000000
     33300      3852  TIP3      H2            -30.2099393791      -28.8108969489      -28.7202176821  TIP3      3660            0.0000000000
     33301      3853  TIP3      OH2           -28.6765356804      -28.8980650999      -41.8581400184  TIP3      3661            0.0000000000
     33302      3853  TIP3      H1            -28.6429351704      -28.3659008908      -42.6716227031  TIP3      3661            0.0000000000
     33303      3853  TIP3      H2            -27.7427324576      -28.8358685926      -41.5278699747  TIP3      3661            0.0000000000
     33304      3854  TIP3      OH2           -25.4432461623      -26.5610094543      -24.2142061033  TIP3      3662            0.0000000000
     33305      3854  TIP3      H1            -24.7612804136      -26.6713102911      -23.5311650622  TIP3      3662            0.0000000000
     33306      3854  TIP3      H2            -26.2077414455      -26.9920076855      -23.7813671561  TIP3      3662            0.0000000000
     33307      3855  TIP3      OH2           -19.8593297744      -25.9074622933       42.5501388144  TIP3      3663            0.0000000000
     33308      3855  TIP3      H1            -20.4069440914      -25.8315117129       41.7509307802  TIP3      3663            0.0000000000
     33309      3855  TIP3      H2            -19.6505130875      -24.9848562354       42.7616371345  TIP3      3663            0.0000000000
     33310      3856  TIP3      OH2           -30.0318916036      -31.2941554959      -26.8345513800  TIP3      3664            0.0000000000
     33311      3856  TIP3      H1            -30.1021503632      -32.0930395628      -27.4090560310  TIP3      3664            0.0000000000
     33312      3856  TIP3      H2            -30.4468362073      -30.6350678169      -27.4330889029  TIP3      3664            0.0000000000
     33313      3857  TIP3      OH2           -30.0415173794      -33.1418580520      -28.8322279018  TIP3      3665            0.0000000000
     33314      3857  TIP3      H1            -29.6277970078      -32.8220065898      -29.6552177888  TIP3      3665            0.0000000000
     33315      3857  TIP3      H2            -30.9277340528      -33.4092350223      -29.1578151887  TIP3      3665            0.0000000000
     33316      3858  TIP3      OH2           -28.6621640888      -27.6785870710      -28.6856532523  TIP3      3666            0.0000000000
     33317      3858  TIP3      H1            -27.7731125748      -27.7858330276      -29.0372418199  TIP3      3666            0.0000000000
     33318      3858  TIP3      H2            -29.0537231177      -26.9560052526      -29.2318706860  TIP3      3666            0.0000000000
     33319      3859  TIP3      OH2           -23.4596106931      -30.5427374250      -24.1676910666  TIP3      3667            0.0000000000
     33320      3859  TIP3      H1            -24.2438092892      -30.8438043410      -23.6455533853  TIP3      3667            0.0000000000
     33321      3859  TIP3      H2            -23.3382891845      -29.6566137135      -23.8036133755  TIP3      3667            0.0000000000
     33322      3860  TIP3      OH2           -22.3893056580      -27.1798277379      -25.4138356528  TIP3      3668            0.0000000000
     33323      3860  TIP3      H1            -22.8146942166      -26.6133141589      -26.0870432086  TIP3      3668            0.0000000000
     33324      3860  TIP3      H2            -21.4623353611      -27.1825524425      -25.7367637012  TIP3      3668            0.0000000000
     33325      3861  TIP3      OH2           -32.6731019478      -30.3530490678      -25.0479649061  TIP3      3669            0.0000000000
     33326      3861  TIP3      H1            -33.0646922451      -31.2324004410      -24.8676507595  TIP3      3669            0.0000000000
     33327      3861  TIP3      H2            -31.7570362887      -30.5630783658      -25.2587248133  TIP3      3669            0.0000000000
     33328      3862  TIP3      OH2           -29.1991499270      -35.7460788465      -28.8089485274  TIP3      3670            0.0000000000
     33329      3862  TIP3      H1            -29.4286463245      -34.7817537925      -28.8046556990  TIP3      3670            0.0000000000
     33330      3862  TIP3      H2            -30.0629299886      -36.1537463595      -28.5958717079  TIP3      3670            0.0000000000
     33331      3863  TIP3      OH2           -27.8955087592      -31.4181063569      -24.9538501387  TIP3      3671            0.0000000000
     33332      3863  TIP3      H1            -28.1714409800      -30.9515052107      -24.1480815117  TIP3      3671            0.0000000000
     33333      3863  TIP3      H2            -28.7214071788      -31.5024556439      -25.4765227000  TIP3      3671            0.0000000000
     33334      3864  TIP3      OH2           -25.4476952135      -32.3324247668      -25.8073557106  TIP3      3672            0.0000000000
     33335      3864  TIP3      H1            -26.2823092220      -32.0804446135      -25.3489211457  TIP3      3672            0.0000000000
     33336      3864  TIP3      H2            -25.0741391751      -32.9123853057      -25.1382794717  TIP3      3672            0.0000000000
     33337      3865  TIP3      OH2           -33.9661644782      -32.6825995205      -24.4290637553  TIP3      3673            0.0000000000
     33338      3865  TIP3      H1            -33.9150539414      -33.4693273027      -25.0077635931  TIP3      3673            0.0000000000
     33339      3865  TIP3      H2            -34.1488083209      -33.1164070760      -23.5817681600  TIP3      3673            0.0000000000
     33340      3866  TIP3      OH2           -29.3570122423       37.1751800974      -25.8861114931  TIP3      3674            0.0000000000
     33341      3866  TIP3      H1            -28.9686241282       36.3408048975      -25.6340777312  TIP3      3674            0.0000000000
     33342      3866  TIP3      H2            -29.2125218834       37.1440358161      -26.8470771729  TIP3      3674            0.0000000000
     33343      3867  TIP3      OH2           -29.1667175127      -18.2926178802      -40.3224556531  TIP3      3675            0.0000000000
     33344      3867  TIP3      H1            -28.3140140307      -17.9179722489      -40.6043481876  TIP3      3675            0.0000000000
     33345      3867  TIP3      H2            -29.8023785567      -17.8985242355      -40.9300690155  TIP3      3675            0.0000000000
     33346      3868  TIP3      OH2           -35.7742081850      -23.2132547202      -41.2523268265  TIP3      3676            0.0000000000
     33347      3868  TIP3      H1            -34.8019792045      -23.1397179753      -41.1761325635  TIP3      3676            0.0000000000
     33348      3868  TIP3      H2            -35.8573037274      -23.6795256010      -42.0915328952  TIP3      3676            0.0000000000
     33349      3869  TIP3      OH2            36.9151257205      -17.7974553503      -36.5941643895  TIP3      3677            0.0000000000
     33350      3869  TIP3      H1             35.9625950627      -17.9418544076      -36.4705207522  TIP3      3677            0.0000000000
     33351      3869  TIP3      H2             37.2587822849      -18.3025187659      -35.8347901126  TIP3      3677            0.0000000000
     33352      3870  TIP3      OH2           -35.7020279341      -19.5969022982      -34.3020919781  TIP3      3678            0.0000000000
     33353      3870  TIP3      H1            -35.7574863207      -20.5269816560      -33.9901462738  TIP3      3678            0.0000000000
     33354      3870  TIP3      H2            -35.1841913368      -19.2048347186      -33.5683344962  TIP3      3678            0.0000000000
     33355      3871  TIP3      OH2           -18.2872678093      -19.3447260736      -31.5617934674  TIP3      3679            0.0000000000
     33356      3871  TIP3      H1            -18.1409050181      -19.1533014347      -30.6202651011  TIP3      3679            0.0000000000
     33357      3871  TIP3      H2            -17.7375511777      -18.6691398773      -31.9835018200  TIP3      3679            0.0000000000
     33358      3872  TIP3      OH2           -18.8919097025      -19.6697500856      -28.6139145670  TIP3      3680            0.0000000000
     33359      3872  TIP3      H1            -19.2847148313      -20.4184099390      -29.1277668004  TIP3      3680            0.0000000000
     33360      3872  TIP3      H2            -18.5855216299      -20.1712232673      -27.8347039610  TIP3      3680            0.0000000000
     33361      3873  TIP3      OH2           -20.0745936144      -23.8037485874      -23.7244436895  TIP3      3681            0.0000000000
     33362      3873  TIP3      H1            -20.8702527087      -23.8160353738      -23.1704979246  TIP3      3681            0.0000000000
     33363      3873  TIP3      H2            -19.5425537662      -23.0626444245      -23.3424684284  TIP3      3681            0.0000000000
     33364      3874  TIP3      OH2           -19.2546048090      -25.3157447344      -38.5884309857  TIP3      3682            0.0000000000
     33365      3874  TIP3      H1            -18.3644479720      -24.9468972357      -38.3920482623  TIP3      3682            0.0000000000
     33366      3874  TIP3      H2            -19.3728618778      -25.9299134496      -37.8218464651  TIP3      3682            0.0000000000
     33367      3875  TIP3      OH2           -19.1091586238      -27.1547312119      -36.5849279210  TIP3      3683            0.0000000000
     33368      3875  TIP3      H1            -19.7582816008      -27.7767610235      -36.1680460194  TIP3      3683            0.0000000000
     33369      3875  TIP3      H2            -18.3570139250      -27.1951590116      -35.9724226363  TIP3      3683            0.0000000000
     33370      3876  TIP3      OH2           -19.0156916981      -24.7155984053      -31.7915601434  TIP3      3684            0.0000000000
     33371      3876  TIP3      H1            -18.3295060901      -25.4048858355      -31.9102810742  TIP3      3684            0.0000000000
     33372      3876  TIP3      H2            -18.5145576746      -23.8857675412      -31.9632679557  TIP3      3684            0.0000000000
     33373      3877  TIP3      OH2           -20.4095790740      -21.8150321784      -29.3784231772  TIP3      3685            0.0000000000
     33374      3877  TIP3      H1            -21.0520401280      -21.5119074912      -28.7078189747  TIP3      3685            0.0000000000
     33375      3877  TIP3      H2            -20.9608596394      -22.0219377308      -30.1613032094  TIP3      3685            0.0000000000
     33376      3878  TIP3      OH2           -18.7290752029      -27.7142829537      -40.0744568675  TIP3      3686            0.0000000000
     33377      3878  TIP3      H1            -19.2590358950      -27.4693125606      -40.8619942024  TIP3      3686            0.0000000000
     33378      3878  TIP3      H2            -18.8045377441      -26.9076977729      -39.5335942447  TIP3      3686            0.0000000000
     33379      3879  TIP3      OH2           -20.6465670749      -30.3645203667      -41.4070352251  TIP3      3687            0.0000000000
     33380      3879  TIP3      H1            -19.8250639293      -29.9313708084      -41.7088278904  TIP3      3687            0.0000000000
     33381      3879  TIP3      H2            -20.6583766903      -31.1465832066      -41.9943352597  TIP3      3687            0.0000000000
     33382      3880  TIP3      OH2           -20.8963941803      -28.8228019827      -35.6127147931  TIP3      3688            0.0000000000
     33383      3880  TIP3      H1            -21.1637975411      -29.7405878389      -35.7585257565  TIP3      3688            0.0000000000
     33384      3880  TIP3      H2            -21.0545432541      -28.7332462960      -34.6466779422  TIP3      3688            0.0000000000
     33385      3881  TIP3      OH2           -36.2299935259      -26.5424746541      -31.7509612616  TIP3      3689            0.0000000000
     33386      3881  TIP3      H1            -36.2335121793      -26.7996340650      -32.6971024157  TIP3      3689            0.0000000000
     33387      3881  TIP3      H2            -35.2681317148      -26.4426303185      -31.6030357949  TIP3      3689            0.0000000000
     33388      3882  TIP3      OH2           -19.8760967791      -26.9371159818      -26.2460558090  TIP3      3690            0.0000000000
     33389      3882  TIP3      H1            -19.3530057484      -27.7617880079      -26.1217892844  TIP3      3690            0.0000000000
     33390      3882  TIP3      H2            -19.1897756999      -26.2527406830      -26.4020186479  TIP3      3690            0.0000000000
     33391      3883  TIP3      OH2           -18.6382622822      -29.3224456995      -26.4061073652  TIP3      3691            0.0000000000
     33392      3883  TIP3      H1            -19.5160547760      -29.7237066435      -26.2258187755  TIP3      3691            0.0000000000
     33393      3883  TIP3      H2            -18.0199193067      -29.9458327299      -25.9715545176  TIP3      3691            0.0000000000
     33394      3884  TIP3      OH2           -20.7912811588      -32.7538539656      -42.6496416303  TIP3      3692            0.0000000000
     33395      3884  TIP3      H1            -20.4769985112      -33.2581796169      -41.8774432686  TIP3      3692            0.0000000000
     33396      3884  TIP3      H2            -21.7579928095      -32.8394070688      -42.5627333007  TIP3      3692            0.0000000000
     33397      3885  TIP3      OH2           -21.7481957880      -31.2594448577      -37.5015173949  TIP3      3693            0.0000000000
     33398      3885  TIP3      H1            -21.3718740942      -32.1313892904      -37.2261479827  TIP3      3693            0.0000000000
     33399      3885  TIP3      H2            -21.0819583163      -31.0275391984      -38.1593304112  TIP3      3693            0.0000000000
     33400      3886  TIP3      OH2           -20.3559934852      -30.6738306299      -31.9334164685  TIP3      3694            0.0000000000
     33401      3886  TIP3      H1            -19.4156794771      -30.4165219433      -31.7407454161  TIP3      3694            0.0000000000
     33402      3886  TIP3      H2            -20.6688377967      -30.6949487669      -31.0060599623  TIP3      3694            0.0000000000
     33403      3887  TIP3      OH2           -20.2828640057      -30.0422189228      -29.2497407564  TIP3      3695            0.0000000000
     33404      3887  TIP3      H1            -21.0718801501      -29.8262738678      -28.7205547039  TIP3      3695            0.0000000000
     33405      3887  TIP3      H2            -19.8408505020      -29.1735460030      -29.3463467727  TIP3      3695            0.0000000000
     33406      3888  TIP3      OH2           -35.9561356924      -31.5221871626      -25.8750849749  TIP3      3696            0.0000000000
     33407      3888  TIP3      H1            -35.2543851861      -31.9743761516      -25.3622539678  TIP3      3696            0.0000000000
     33408      3888  TIP3      H2            -36.4165367522      -32.2748394199      -26.3065584091  TIP3      3696            0.0000000000
     33409      3889  TIP3      OH2           -17.7088244434      -36.0721362808      -24.1889812666  TIP3      3697            0.0000000000
     33410      3889  TIP3      H1            -17.8295419289      -36.7537050751      -24.8663921286  TIP3      3697            0.0000000000
     33411      3889  TIP3      H2            -18.1559565142      -35.2944556175      -24.5570675249  TIP3      3697            0.0000000000
     33412      3890  TIP3      OH2           -20.7720279337      -33.7262291679      -37.0973379112  TIP3      3698            0.0000000000
     33413      3890  TIP3      H1            -20.2709680566      -34.1139468563      -36.3493884203  TIP3      3698            0.0000000000
     33414      3890  TIP3      H2            -21.0995782167      -34.5305311541      -37.5459087334  TIP3      3698            0.0000000000
     33415      3891  TIP3      OH2           -35.1461210653      -33.0623991339      -32.6887791885  TIP3      3699            0.0000000000
     33416      3891  TIP3      H1            -34.7978681298      -33.9494280919      -32.4749349628  TIP3      3699            0.0000000000
     33417      3891  TIP3      H2            -34.3696269810      -32.5138857082      -32.4500939105  TIP3      3699            0.0000000000
     33418      3892  TIP3      OH2           -36.2497654276      -29.2227133068      -31.1182858829  TIP3      3700            0.0000000000
     33419      3892  TIP3      H1            -35.5005053455      -29.4032238651      -31.7171994959  TIP3      3700            0.0000000000
     33420      3892  TIP3      H2            -36.4863303722      -28.3067668727      -31.3810134863  TIP3      3700            0.0000000000
     33421      3893  TIP3      OH2           -18.4780967455      -33.9184504237      -26.1129835050  TIP3      3701            0.0000000000
     33422      3893  TIP3      H1            -19.3597726747      -33.5368645518      -25.9358735764  TIP3      3701            0.0000000000
     33423      3893  TIP3      H2            -18.7495504686      -34.6930177455      -26.6466385157  TIP3      3701            0.0000000000
     33424      3894  TIP3      OH2           -19.0650143836      -33.7319070700      -40.8895155125  TIP3      3702            0.0000000000
     33425      3894  TIP3      H1            -18.5092343403      -34.5379330999      -40.9667394879  TIP3      3702            0.0000000000
     33426      3894  TIP3      H2            -18.9422861077      -33.3688341268      -41.7886749720  TIP3      3702            0.0000000000
     33427      3895  TIP3      OH2           -35.8849278174      -34.1064074994      -37.9405589493  TIP3      3703            0.0000000000
     33428      3895  TIP3      H1            -36.7699090452      -34.0692582211      -37.5030335932  TIP3      3703            0.0000000000
     33429      3895  TIP3      H2            -35.7918528687      -33.1677236453      -38.1976881538  TIP3      3703            0.0000000000
     33430      3896  TIP3      OH2           -21.7881797308      -18.9763297970      -35.6083062142  TIP3      3704            0.0000000000
     33431      3896  TIP3      H1            -21.0989791650      -19.2092756603      -36.2616233246  TIP3      3704            0.0000000000
     33432      3896  TIP3      H2            -21.2817679591      -18.4607197524      -34.9415404237  TIP3      3704            0.0000000000
     33433      3897  TIP3      OH2           -36.3153421264      -35.5993331733      -29.7126757688  TIP3      3705            0.0000000000
     33434      3897  TIP3      H1            -37.0556200605      -36.0973170417      -29.3470794794  TIP3      3705            0.0000000000
     33435      3897  TIP3      H2            -36.7912488144      -34.8572233612      -30.1397379967  TIP3      3705            0.0000000000
     33436      3898  TIP3      OH2           -33.6462664636      -21.7272053616      -24.4686397076  TIP3      3706            0.0000000000
     33437      3898  TIP3      H1            -34.2275453822      -22.1049529192      -25.1463456550  TIP3      3706            0.0000000000
     33438      3898  TIP3      H2            -34.1502697048      -21.9664212322      -23.6494299564  TIP3      3706            0.0000000000
     33439      3899  TIP3      OH2           -31.0117549329      -20.6467015022      -29.0954462639  TIP3      3707            0.0000000000
     33440      3899  TIP3      H1            -31.4197050391      -19.8407669657      -29.4940223011  TIP3      3707            0.0000000000
     33441      3899  TIP3      H2            -30.1378230557      -20.6558434566      -29.5401527651  TIP3      3707            0.0000000000
     33442      3900  TIP3      OH2           -27.2482387408      -19.2726759543      -26.0671852648  TIP3      3708            0.0000000000
     33443      3900  TIP3      H1            -26.9877111094      -20.1042271753      -25.6473702318  TIP3      3708            0.0000000000
     33444      3900  TIP3      H2            -26.3655802000      -19.0064700041      -26.4180493774  TIP3      3708            0.0000000000
     33445      3901  TIP3      OH2           -24.8886851559      -18.2436574715      -26.6358523033  TIP3      3709            0.0000000000
     33446      3901  TIP3      H1            -24.2072160591      -18.5836297493      -27.2364315191  TIP3      3709            0.0000000000
     33447      3901  TIP3      H2            -24.4231461658      -17.5613384286      -26.1290800900  TIP3      3709            0.0000000000
     33448      3902  TIP3      OH2           -19.6219791850      -35.8473106030      -27.8806227343  TIP3      3710            0.0000000000
     33449      3902  TIP3      H1            -20.4277592153      -35.5335335997      -28.3150770496  TIP3      3710            0.0000000000
     33450      3902  TIP3      H2            -19.5716472390      -36.7814948111      -28.1699512330  TIP3      3710            0.0000000000
     33451      3903  TIP3      OH2           -33.6844356155      -17.7679949611      -28.9671307033  TIP3      3711            0.0000000000
     33452      3903  TIP3      H1            -34.5321128340      -17.6812618613      -29.4598709684  TIP3      3711            0.0000000000
     33453      3903  TIP3      H2            -34.0167599297      -17.8586417157      -28.0644436182  TIP3      3711            0.0000000000
     33454      3904  TIP3      OH2           -31.5108448920      -18.3260363834      -30.2873583275  TIP3      3712            0.0000000000
     33455      3904  TIP3      H1            -32.4246662205      -18.2035360296      -29.9065282835  TIP3      3712            0.0000000000
     33456      3904  TIP3      H2            -31.4950333597      -17.5932381511      -30.9341079587  TIP3      3712            0.0000000000
     33457      3905  TIP3      OH2           -27.0092406779      -18.6044195074      -30.8003089051  TIP3      3713            0.0000000000
     33458      3905  TIP3      H1            -26.9406888493      -18.2275824275      -31.6894515206  TIP3      3713            0.0000000000
     33459      3905  TIP3      H2            -26.6604207241      -17.8538395419      -30.2765928149  TIP3      3713            0.0000000000
     33460      3906  TIP3      OH2           -24.8600224216      -19.9037873839      -29.3400958761  TIP3      3714            0.0000000000
     33461      3906  TIP3      H1            -25.5138720998      -19.5781211262      -29.9823891418  TIP3      3714            0.0000000000
     33462      3906  TIP3      H2            -24.1053060006      -19.3181726986      -29.5618155096  TIP3      3714            0.0000000000
     33463      3907  TIP3      OH2           -22.4667303758      -18.5476315809      -29.6559437010  TIP3      3715            0.0000000000
     33464      3907  TIP3      H1            -22.3908536450      -17.6446536796      -30.0212798879  TIP3      3715            0.0000000000
     33465      3907  TIP3      H2            -21.9868595112      -19.0576600449      -30.3528430718  TIP3      3715            0.0000000000
     33466      3908  TIP3      OH2           -34.0109472234      -19.3033289888      -32.0162946904  TIP3      3716            0.0000000000
     33467      3908  TIP3      H1            -34.1428304836      -19.9495541178      -31.2744121546  TIP3      3716            0.0000000000
     33468      3908  TIP3      H2            -33.2053291842      -19.6970670747      -32.4154542933  TIP3      3716            0.0000000000
     33469      3909  TIP3      OH2           -32.1678097466      -20.5874363426      -33.5258658997  TIP3      3717            0.0000000000
     33470      3909  TIP3      H1            -32.3238580316      -21.4867500821      -33.1700547236  TIP3      3717            0.0000000000
     33471      3909  TIP3      H2            -31.4042835477      -20.3040034072      -32.9693275996  TIP3      3717            0.0000000000
     33472      3910  TIP3      OH2           -29.9633697533      -20.2243383315      -32.0458756015  TIP3      3718            0.0000000000
     33473      3910  TIP3      H1            -29.6649608404      -21.1064304890      -32.3181995530  TIP3      3718            0.0000000000
     33474      3910  TIP3      H2            -29.4907968205      -20.1257676125      -31.2041420602  TIP3      3718            0.0000000000
     33475      3911  TIP3      OH2           -26.2242706230      -33.6104390259      -33.4538582663  TIP3      3719            0.0000000000
     33476      3911  TIP3      H1            -26.9436964121      -34.2120308362      -33.2223860462  TIP3      3719            0.0000000000
     33477      3911  TIP3      H2            -25.5864295525      -34.2690991323      -33.7984800775  TIP3      3719            0.0000000000
     33478      3912  TIP3      OH2           -20.9535362555      -36.4691674212      -33.6929914573  TIP3      3720            0.0000000000
     33479      3912  TIP3      H1            -20.3279152366      -35.8274986608      -34.0913905535  TIP3      3720            0.0000000000
     33480      3912  TIP3      H2            -21.7570024890      -35.9512451595      -33.6214960955  TIP3      3720            0.0000000000
     33481      3913  TIP3      OH2           -19.2798166500      -34.6535658856      -34.9784451044  TIP3      3721            0.0000000000
     33482      3913  TIP3      H1            -18.6455267986      -35.3505870641      -34.7107164520  TIP3      3721            0.0000000000
     33483      3913  TIP3      H2            -18.7067562158      -33.8689517537      -35.1133761263  TIP3      3721            0.0000000000
     33484      3914  TIP3      OH2           -33.5205491790      -35.8606206321      -35.7957487715  TIP3      3722            0.0000000000
     33485      3914  TIP3      H1            -34.4885963293      -35.8530427875      -35.8661476102  TIP3      3722            0.0000000000
     33486      3914  TIP3      H2            -33.3890475288      -36.6818437753      -35.2996045771  TIP3      3722            0.0000000000
     33487      3915  TIP3      OH2           -34.9960994866      -35.4447132959      -40.3793513492  TIP3      3723            0.0000000000
     33488      3915  TIP3      H1            -34.2118051329      -35.0186522263      -40.7736444205  TIP3      3723            0.0000000000
     33489      3915  TIP3      H2            -35.2799365312      -34.7358723844      -39.7604331820  TIP3      3723            0.0000000000
     33490      3916  TIP3      OH2           -28.9446204128      -35.5502981172      -35.6252632456  TIP3      3724            0.0000000000
     33491      3916  TIP3      H1            -28.1702646879      -35.1790808856      -36.0857866316  TIP3      3724            0.0000000000
     33492      3916  TIP3      H2            -28.5361146927      -35.7699498929      -34.7673120138  TIP3      3724            0.0000000000
     33493      3917  TIP3      OH2           -24.5627538402      -35.6795971591      -34.3554933676  TIP3      3725            0.0000000000
     33494      3917  TIP3      H1            -24.9454004799      -35.5291961850      -35.2370639715  TIP3      3725            0.0000000000
     33495      3917  TIP3      H2            -24.1123149011      -36.5366134279      -34.5235876630  TIP3      3725            0.0000000000
     33496      3918  TIP3      OH2           -22.6005801800      -35.9855584370      -38.4160679566  TIP3      3726            0.0000000000
     33497      3918  TIP3      H1            -23.3540136569      -35.3668628487      -38.4451844354  TIP3      3726            0.0000000000
     33498      3918  TIP3      H2            -22.9893368653      -36.8641326275      -38.5212477547  TIP3      3726            0.0000000000
     33499      3919  TIP3      OH2           -34.9165752086      -19.8967911512      -38.8472544593  TIP3      3727            0.0000000000
     33500      3919  TIP3      H1            -35.8672143533      -19.7768699935      -39.0594575784  TIP3      3727            0.0000000000
     33501      3919  TIP3      H2            -34.6179819033      -18.9849848302      -39.0091604447  TIP3      3727            0.0000000000
     33502      3920  TIP3      OH2           -33.6098454888      -33.3937269961      -41.2623988557  TIP3      3728            0.0000000000
     33503      3920  TIP3      H1            -33.1642615971      -33.1768053974      -42.1053384019  TIP3      3728            0.0000000000
     33504      3920  TIP3      H2            -32.8605238077      -33.6218278907      -40.6753014819  TIP3      3728            0.0000000000
     33505      3921  TIP3      OH2           -28.6315510396      -34.0204138955      -38.7458215218  TIP3      3729            0.0000000000
     33506      3921  TIP3      H1            -27.8054110849      -34.2492570486      -38.3025063543  TIP3      3729            0.0000000000
     33507      3921  TIP3      H2            -28.6579679963      -33.0645894067      -38.5326145754  TIP3      3729            0.0000000000
     33508      3922  TIP3      OH2           -26.3268668379      -17.9106015651      -40.7797708304  TIP3      3730            0.0000000000
     33509      3922  TIP3      H1            -25.5024909368      -17.5873183566      -41.1904007972  TIP3      3730            0.0000000000
     33510      3922  TIP3      H2            -26.1563545695      -18.8800534980      -40.8767914093  TIP3      3730            0.0000000000
     33511      3923  TIP3      OH2           -19.9240503474      -19.5294678622      -37.3672968240  TIP3      3731            0.0000000000
     33512      3923  TIP3      H1            -20.1089589701      -20.2118271732      -38.0670816166  TIP3      3731            0.0000000000
     33513      3923  TIP3      H2            -19.9375981110      -18.7318050840      -37.9426327835  TIP3      3731            0.0000000000
     33514      3924  TIP3      OH2           -34.0838156644      -35.0943574738      -26.4985956790  TIP3      3732            0.0000000000
     33515      3924  TIP3      H1            -34.7230843306      -35.8199714804      -26.5486776519  TIP3      3732            0.0000000000
     33516      3924  TIP3      H2            -33.3954216735      -35.5020778295      -25.9450626541  TIP3      3732            0.0000000000
     33517      3925  TIP3      OH2           -32.2679331290      -35.6280841691      -24.5098314686  TIP3      3733            0.0000000000
     33518      3925  TIP3      H1            -31.3453802153      -35.8652647774      -24.7091338074  TIP3      3733            0.0000000000
     33519      3925  TIP3      H2            -32.6527375104      -36.5012685234      -24.3131567429  TIP3      3733            0.0000000000
     33520      3926  TIP3      OH2           -33.1558049871      -18.3864022770      -41.5395936529  TIP3      3734            0.0000000000
     33521      3926  TIP3      H1            -33.5469725291      -18.0901922748      -40.6961107407  TIP3      3734            0.0000000000
     33522      3926  TIP3      H2            -33.1687610008      -19.3486808326      -41.5030987873  TIP3      3734            0.0000000000
     33523      3927  TIP3      OH2           -23.4329200082      -36.0933615629      -24.5463717581  TIP3      3735            0.0000000000
     33524      3927  TIP3      H1            -24.1325334109      -36.5594863739      -24.0693919469  TIP3      3735            0.0000000000
     33525      3927  TIP3      H2            -22.6472485009      -36.6159635731      -24.2571679879  TIP3      3735            0.0000000000
     33526      3928  TIP3      OH2           -20.1772062728      -20.6144544510      -25.9190789406  TIP3      3736            0.0000000000
     33527      3928  TIP3      H1            -20.9442431660      -20.5774941109      -26.5379591129  TIP3      3736            0.0000000000
     33528      3928  TIP3      H2            -20.1489684780      -19.6827131464      -25.6173569196  TIP3      3736            0.0000000000
     33529      3929  TIP3      OH2            -6.0667279309      -26.5563400455      -35.7240866619  TIP3      3737            0.0000000000
     33530      3929  TIP3      H1             -6.0218136198      -25.5870890991      -35.6053577775  TIP3      3737            0.0000000000
     33531      3929  TIP3      H2             -6.8642796489      -26.6016172264      -36.2651317564  TIP3      3737            0.0000000000
     33532      3930  TIP3      OH2            -7.0270307181      -27.6917712244      -32.3967025025  TIP3      3738            0.0000000000
     33533      3930  TIP3      H1             -6.9249517325      -28.1535309787      -31.5366258312  TIP3      3738            0.0000000000
     33534      3930  TIP3      H2             -7.7159364723      -28.2093360872      -32.8632818021  TIP3      3738            0.0000000000
     33535      3931  TIP3      OH2           -15.0018620480      -27.7192089496      -30.8196085767  TIP3      3739            0.0000000000
     33536      3931  TIP3      H1            -15.1367922614      -28.5009266466      -30.2397103342  TIP3      3739            0.0000000000
     33537      3931  TIP3      H2            -14.1561573154      -27.3704593788      -30.5071328248  TIP3      3739            0.0000000000
     33538      3932  TIP3      OH2            -3.8748158308      -24.6644280418      -33.9286629656  TIP3      3740            0.0000000000
     33539      3932  TIP3      H1             -4.1392208448      -25.3234851606      -33.2556030063  TIP3      3740            0.0000000000
     33540      3932  TIP3      H2             -3.4993824940      -23.9878926942      -33.3481510749  TIP3      3740            0.0000000000
     33541      3933  TIP3      OH2           -13.8014849599      -23.2696866397      -32.2645892985  TIP3      3741            0.0000000000
     33542      3933  TIP3      H1            -14.1955640307      -24.1119323626      -32.5626094050  TIP3      3741            0.0000000000
     33543      3933  TIP3      H2            -12.8642202920      -23.4189583658      -32.4727125937  TIP3      3741            0.0000000000
     33544      3934  TIP3      OH2           -17.0205417857      -29.6821746871      -36.8155474412  TIP3      3742            0.0000000000
     33545      3934  TIP3      H1            -17.5390999939      -29.2220069059      -36.1457229170  TIP3      3742            0.0000000000
     33546      3934  TIP3      H2            -17.6791186410      -29.8143929068      -37.5253114701  TIP3      3742            0.0000000000
     33547      3935  TIP3      OH2           -16.6210524847      -27.3610921107      -34.2040379313  TIP3      3743            0.0000000000
     33548      3935  TIP3      H1            -16.1743598234      -28.1998058938      -33.9553465373  TIP3      3743            0.0000000000
     33549      3935  TIP3      H2            -15.9407824284      -26.6811904264      -34.0289426437  TIP3      3743            0.0000000000
     33550      3936  TIP3      OH2            -6.2536555473      -19.1848837783      -34.0011056078  TIP3      3744            0.0000000000
     33551      3936  TIP3      H1             -5.5694687024      -19.7154341911      -34.4746400635  TIP3      3744            0.0000000000
     33552      3936  TIP3      H2             -6.5067274327      -19.8476220706      -33.3436635463  TIP3      3744            0.0000000000
     33553      3937  TIP3      OH2            -9.0413870452      -25.0322437137      -31.2129731220  TIP3      3745            0.0000000000
     33554      3937  TIP3      H1             -8.7512604322      -25.2765733857      -32.1033123668  TIP3      3745            0.0000000000
     33555      3937  TIP3      H2             -8.1780603939      -24.7579076347      -30.8243711509  TIP3      3745            0.0000000000
     33556      3938  TIP3      OH2            -0.2541362636      -33.6591199979      -31.3322890408  TIP3      3746            0.0000000000
     33557      3938  TIP3      H1             -0.1943268578      -33.0087364122      -30.6057542313  TIP3      3746            0.0000000000
     33558      3938  TIP3      H2              0.4120808972      -33.2872058182      -31.9357776990  TIP3      3746            0.0000000000
     33559      3939  TIP3      OH2            -5.2464645085      -30.4293046107      -31.2123113978  TIP3      3747            0.0000000000
     33560      3939  TIP3      H1             -5.0627753221      -31.3685692915      -31.0217180358  TIP3      3747            0.0000000000
     33561      3939  TIP3      H2             -5.3693685118      -30.4629868336      -32.1811875430  TIP3      3747            0.0000000000
     33562      3940  TIP3      OH2           -12.8061012163      -32.2147702897      -34.4820930005  TIP3      3748            0.0000000000
     33563      3940  TIP3      H1            -12.2203689384      -31.6590787213      -35.0218286780  TIP3      3748            0.0000000000
     33564      3940  TIP3      H2            -12.9766340588      -32.9513540843      -35.1087316253  TIP3      3748            0.0000000000
     33565      3941  TIP3      OH2            -4.7888817891      -32.3743300961      -35.8793805551  TIP3      3749            0.0000000000
     33566      3941  TIP3      H1             -4.2314933495      -32.6074462328      -35.1131789574  TIP3      3749            0.0000000000
     33567      3941  TIP3      H2             -4.2267379613      -31.6900936327      -36.2879440806  TIP3      3749            0.0000000000
     33568      3942  TIP3      OH2           -15.9522836775      -29.9428592291      -33.4165016746  TIP3      3750            0.0000000000
     33569      3942  TIP3      H1            -15.2697248822      -30.4811370442      -32.9628029616  TIP3      3750            0.0000000000
     33570      3942  TIP3      H2            -16.0917581295      -30.4077349737      -34.2497801215  TIP3      3750            0.0000000000
     33571      3943  TIP3      OH2           -11.0722031638      -28.4122654751      -34.0456890761  TIP3      3751            0.0000000000
     33572      3943  TIP3      H1            -10.2608483481      -28.8635204068      -33.7297740026  TIP3      3751            0.0000000000
     33573      3943  TIP3      H2            -11.3339829401      -29.0388199944      -34.7548094923  TIP3      3751            0.0000000000
     33574      3944  TIP3      OH2             0.0353462205      -32.1766721922      -28.7496935673  TIP3      3752            0.0000000000
     33575      3944  TIP3      H1             -0.4035037905      -31.4013482717      -29.1663085342  TIP3      3752            0.0000000000
     33576      3944  TIP3      H2              0.4502658484      -31.7467377952      -27.9812842579  TIP3      3752            0.0000000000
     33577      3945  TIP3      OH2           -13.2358160116      -33.3752696060      -29.9639044067  TIP3      3753            0.0000000000
     33578      3945  TIP3      H1            -13.6219331805      -32.8679341256      -30.7070301764  TIP3      3753            0.0000000000
     33579      3945  TIP3      H2            -13.9353160067      -33.2021330254      -29.2914158679  TIP3      3753            0.0000000000
     33580      3946  TIP3      OH2            -6.5999578536      -24.1644466039      -36.7728054949  TIP3      3754            0.0000000000
     33581      3946  TIP3      H1             -6.7912485621      -24.1272882118      -37.7296091782  TIP3      3754            0.0000000000
     33582      3946  TIP3      H2             -6.8566562460      -23.2573123165      -36.4857937613  TIP3      3754            0.0000000000
     33583      3947  TIP3      OH2           -11.4715483144      -25.8468069785      -30.6583436136  TIP3      3755            0.0000000000
     33584      3947  TIP3      H1            -11.9421220189      -25.1258682348      -30.1840555712  TIP3      3755            0.0000000000
     33585      3947  TIP3      H2            -10.5988224906      -25.4229384355      -30.8348252104  TIP3      3755            0.0000000000
     33586      3948  TIP3      OH2            -2.7420140153      -32.1279502372      -33.9285250699  TIP3      3756            0.0000000000
     33587      3948  TIP3      H1             -2.4204692059      -33.0085264541      -33.6826594089  TIP3      3756            0.0000000000
     33588      3948  TIP3      H2             -2.2721968117      -31.5674994442      -33.2801704849  TIP3      3756            0.0000000000
     33589      3949  TIP3      OH2           -14.0266193776      -31.7017957673      -32.1964150113  TIP3      3757            0.0000000000
     33590      3949  TIP3      H1            -13.4422683110      -30.9825089255      -31.8607973231  TIP3      3757            0.0000000000
     33591      3949  TIP3      H2            -13.5202372948      -31.9723882382      -33.0120803338  TIP3      3757            0.0000000000
     33592      3950  TIP3      OH2           -12.4722561207      -23.7266653027      -29.3275307914  TIP3      3758            0.0000000000
     33593      3950  TIP3      H1            -12.7022052470      -22.9224205637      -29.8135451588  TIP3      3758            0.0000000000
     33594      3950  TIP3      H2            -13.3467668334      -23.8925878195      -28.8917612305  TIP3      3758            0.0000000000
     33595      3951  TIP3      OH2           -16.7473035029      -24.3663944033      -38.3786129875  TIP3      3759            0.0000000000
     33596      3951  TIP3      H1            -16.6852935858      -23.9169109030      -39.2509010597  TIP3      3759            0.0000000000
     33597      3951  TIP3      H2            -16.6239640950      -23.6314087586      -37.7507794594  TIP3      3759            0.0000000000
     33598      3952  TIP3      OH2            -2.9066970622      -22.6006390734      -31.7466331683  TIP3      3760            0.0000000000
     33599      3952  TIP3      H1             -3.8200033695      -22.3291065196      -31.5089926970  TIP3      3760            0.0000000000
     33600      3952  TIP3      H2             -2.6795881052      -21.8541901125      -32.3182445201  TIP3      3760            0.0000000000
     33601      3953  TIP3      OH2            -2.6251573573      -33.8835579711      -30.0275847965  TIP3      3761            0.0000000000
     33602      3953  TIP3      H1             -3.3146133095      -33.4438683128      -30.5670056432  TIP3      3761            0.0000000000
     33603      3953  TIP3      H2             -1.9003478393      -34.0120759544      -30.6797496380  TIP3      3761            0.0000000000
     33604      3954  TIP3      OH2            -9.7035526882      -35.6099017251      -33.0883024194  TIP3      3762            0.0000000000
     33605      3954  TIP3      H1             -9.6207494887      -36.4596237460      -32.6354759111  TIP3      3762            0.0000000000
     33606      3954  TIP3      H2            -10.5200136289      -35.2342597860      -32.6745545614  TIP3      3762            0.0000000000
     33607      3955  TIP3      OH2            -4.5002545042      -20.7851529185      -35.2284094507  TIP3      3763            0.0000000000
     33608      3955  TIP3      H1             -4.2799358618      -21.5764785598      -35.7568379481  TIP3      3763            0.0000000000
     33609      3955  TIP3      H2             -3.7441864985      -20.1923039881      -35.4318698999  TIP3      3763            0.0000000000
     33610      3956  TIP3      OH2            -3.5141394751      -23.0539094784      -36.6676439164  TIP3      3764            0.0000000000
     33611      3956  TIP3      H1             -3.6835409697      -23.7860325215      -37.2907864136  TIP3      3764            0.0000000000
     33612      3956  TIP3      H2             -3.7161338429      -23.4877981556      -35.8235671869  TIP3      3764            0.0000000000
     33613      3957  TIP3      OH2            -1.9651593787      -24.1800435615      -27.7800335577  TIP3      3765            0.0000000000
     33614      3957  TIP3      H1             -1.7669886186      -24.9045862837      -28.4086459124  TIP3      3765            0.0000000000
     33615      3957  TIP3      H2             -1.7850594148      -23.3943075634      -28.3251172547  TIP3      3765            0.0000000000
     33616      3958  TIP3      OH2            -7.5219353224      -27.5429248078      -38.3252498903  TIP3      3766            0.0000000000
     33617      3958  TIP3      H1             -8.1427868635      -26.7986522266      -38.4760362194  TIP3      3766            0.0000000000
     33618      3958  TIP3      H2             -6.6841169290      -27.2053942248      -38.7051917564  TIP3      3766            0.0000000000
     33619      3959  TIP3      OH2            -7.4838096066      -28.1245013035      -41.2048757670  TIP3      3767            0.0000000000
     33620      3959  TIP3      H1             -6.7808255697      -27.9348034439      -40.5456477331  TIP3      3767            0.0000000000
     33621      3959  TIP3      H2             -7.1291289151      -28.9267952343      -41.6157887141  TIP3      3767            0.0000000000
     33622      3960  TIP3      OH2             0.0319361263      -27.7793532592      -30.1649943014  TIP3      3768            0.0000000000
     33623      3960  TIP3      H1             -0.5950555098      -27.0311742816      -30.1194868925  TIP3      3768            0.0000000000
     33624      3960  TIP3      H2              0.7519047393      -27.3890509780      -30.7016772015  TIP3      3768            0.0000000000
     33625      3961  TIP3      OH2            -3.6369835140      -27.5041500955      -37.3498537378  TIP3      3769            0.0000000000
     33626      3961  TIP3      H1             -4.3135407655      -27.1766958804      -36.7186875600  TIP3      3769            0.0000000000
     33627      3961  TIP3      H2             -3.0219406032      -27.9664861384      -36.7276330047  TIP3      3769            0.0000000000
     33628      3962  TIP3      OH2            -3.9010738158      -28.7255621582      -27.7322640121  TIP3      3770            0.0000000000
     33629      3962  TIP3      H1             -4.2902632441      -27.9067831699      -27.3569876831  TIP3      3770            0.0000000000
     33630      3962  TIP3      H2             -4.4096012250      -28.8166892968      -28.5527585006  TIP3      3770            0.0000000000
     33631      3963  TIP3      OH2           -12.2119218895      -26.2788754164      -35.1027976372  TIP3      3771            0.0000000000
     33632      3963  TIP3      H1            -12.3987548119      -26.6061528647      -35.9954253584  TIP3      3771            0.0000000000
     33633      3963  TIP3      H2            -11.7677942976      -27.0727632386      -34.7368988178  TIP3      3771            0.0000000000
     33634      3964  TIP3      OH2           -10.8998778356      -23.2624642250      -32.6885284847  TIP3      3772            0.0000000000
     33635      3964  TIP3      H1            -10.7946749059      -23.5164207899      -33.6120352072  TIP3      3772            0.0000000000
     33636      3964  TIP3      H2            -10.2643125709      -23.8145727640      -32.1953550227  TIP3      3772            0.0000000000
     33637      3965  TIP3      OH2           -12.2075091855      -28.0837404704      -31.7127123189  TIP3      3773            0.0000000000
     33638      3965  TIP3      H1            -11.8285199511      -28.0270708130      -32.6162618496  TIP3      3773            0.0000000000
     33639      3965  TIP3      H2            -11.8351392355      -27.2662186921      -31.3056049389  TIP3      3773            0.0000000000
     33640      3966  TIP3      OH2            -5.4584216716      -22.0536761345      -31.0995143658  TIP3      3774            0.0000000000
     33641      3966  TIP3      H1             -6.0314800035      -21.5252836819      -30.5178981143  TIP3      3774            0.0000000000
     33642      3966  TIP3      H2             -5.5945004830      -22.9595058728      -30.7562182982  TIP3      3774            0.0000000000
     33643      3967  TIP3      OH2           -11.0315426071      -23.4834515789      -26.9770087727  TIP3      3775            0.0000000000
     33644      3967  TIP3      H1            -11.6828519191      -22.9022195071      -26.5169132807  TIP3      3775            0.0000000000
     33645      3967  TIP3      H2            -11.4489297950      -23.5459958161      -27.8696828465  TIP3      3775            0.0000000000
     33646      3968  TIP3      OH2            -5.2012388580      -27.7302197215      -39.5314879324  TIP3      3776            0.0000000000
     33647      3968  TIP3      H1             -4.6154809060      -27.6353198456      -38.7455171652  TIP3      3776            0.0000000000
     33648      3968  TIP3      H2             -4.6769109594      -27.2745860008      -40.2279980966  TIP3      3776            0.0000000000
     33649      3969  TIP3      OH2           -13.7699990682      -27.2998033202      -27.6022925543  TIP3      3777            0.0000000000
     33650      3969  TIP3      H1            -13.6187676500      -26.7025912801      -26.8493635086  TIP3      3777            0.0000000000
     33651      3969  TIP3      H2            -14.7244190699      -27.4541625867      -27.4964516279  TIP3      3777            0.0000000000
     33652      3970  TIP3      OH2            -7.2306055137      -21.7092403648      -35.8468412061  TIP3      3778            0.0000000000
     33653      3970  TIP3      H1             -6.8175423349      -21.0085015449      -35.3322654980  TIP3      3778            0.0000000000
     33654      3970  TIP3      H2             -7.8474903689      -21.2400208613      -36.4223161115  TIP3      3778            0.0000000000
     33655      3971  TIP3      OH2           -12.7377392311      -21.6030677491      -26.2272613546  TIP3      3779            0.0000000000
     33656      3971  TIP3      H1            -12.8522104294      -21.2800629326      -27.1500949937  TIP3      3779            0.0000000000
     33657      3971  TIP3      H2            -13.6538135614      -21.8426566374      -25.9665498512  TIP3      3779            0.0000000000
     33658      3972  TIP3      OH2            -0.8978427914      -36.1002900833      -39.5763088395  TIP3      3780            0.0000000000
     33659      3972  TIP3      H1             -1.8496663349      -36.3048573303      -39.5491174178  TIP3      3780            0.0000000000
     33660      3972  TIP3      H2             -0.8757232394      -35.1898970971      -39.9113289141  TIP3      3780            0.0000000000
     33661      3973  TIP3      OH2           -13.4158466063      -27.7261995887      -38.3633832065  TIP3      3781            0.0000000000
     33662      3973  TIP3      H1            -13.7172329649      -26.9249601058      -38.8502290505  TIP3      3781            0.0000000000
     33663      3973  TIP3      H2            -14.1975416130      -27.8644741525      -37.8231760407  TIP3      3781            0.0000000000
     33664      3974  TIP3      OH2            -0.1148282424      -21.9850238516      -41.4059306121  TIP3      3782            0.0000000000
     33665      3974  TIP3      H1              0.1789227490      -21.0961625229      -41.1329490740  TIP3      3782            0.0000000000
     33666      3974  TIP3      H2              0.7077926832      -22.4920450317      -41.2743107326  TIP3      3782            0.0000000000
     33667      3975  TIP3      OH2           -17.0244524366      -24.9903544504      -28.7265241028  TIP3      3783            0.0000000000
     33668      3975  TIP3      H1            -17.4405704673      -25.1336739599      -29.5867336699  TIP3      3783            0.0000000000
     33669      3975  TIP3      H2            -16.6709158973      -25.8958409647      -28.5673450218  TIP3      3783            0.0000000000
     33670      3976  TIP3      OH2           -17.5186281937      -22.3483909228      -32.1130019606  TIP3      3784            0.0000000000
     33671      3976  TIP3      H1            -16.5839188934      -22.3402457120      -31.8601378885  TIP3      3784            0.0000000000
     33672      3976  TIP3      H2            -17.8077470273      -21.4676648304      -31.8289320648  TIP3      3784            0.0000000000
     33673      3977  TIP3      OH2             0.7890048238      -21.7717830438      -26.3160614547  TIP3      3785            0.0000000000
     33674      3977  TIP3      H1              0.6579658857      -22.7060948493      -26.0703413971  TIP3      3785            0.0000000000
     33675      3977  TIP3      H2             -0.0676925249      -21.4246561877      -25.9744748987  TIP3      3785            0.0000000000
     33676      3978  TIP3      OH2            -8.5928421659      -22.2947120575      -27.2358034324  TIP3      3786            0.0000000000
     33677      3978  TIP3      H1             -8.4860936993      -21.4239461344      -26.8224695829  TIP3      3786            0.0000000000
     33678      3978  TIP3      H2             -9.5359992074      -22.5214372153      -27.0668331731  TIP3      3786            0.0000000000
     33679      3979  TIP3      OH2            -7.8231218490      -18.4516434669      -38.1701879043  TIP3      3787            0.0000000000
     33680      3979  TIP3      H1             -7.8143626298      -18.1888852901      -39.1196451233  TIP3      3787            0.0000000000
     33681      3979  TIP3      H2             -7.8258558270      -17.5762001810      -37.7258227381  TIP3      3787            0.0000000000
     33682      3980  TIP3      OH2           -14.1353158705      -19.7541704058      -35.8190235518  TIP3      3788            0.0000000000
     33683      3980  TIP3      H1            -13.9644684719      -20.1429907024      -34.9295189283  TIP3      3788            0.0000000000
     33684      3980  TIP3      H2            -15.0059206578      -20.1445965668      -36.0591327101  TIP3      3788            0.0000000000
     33685      3981  TIP3      OH2            -4.7762960472      -18.8879021824      -40.9071544851  TIP3      3789            0.0000000000
     33686      3981  TIP3      H1             -4.1578403080      -19.4909781101      -41.3592701809  TIP3      3789            0.0000000000
     33687      3981  TIP3      H2             -4.6935644031      -19.1484843609      -39.9815220130  TIP3      3789            0.0000000000
     33688      3982  TIP3      OH2            -5.0443014721      -19.1848726267      -37.9793333288  TIP3      3790            0.0000000000
     33689      3982  TIP3      H1             -6.0030444621      -19.0089113995      -37.8880742554  TIP3      3790            0.0000000000
     33690      3982  TIP3      H2             -4.9611781827      -20.0593551193      -37.5705100062  TIP3      3790            0.0000000000
     33691      3983  TIP3      OH2            -2.6092787055      -30.2430156279      -25.9326302561  TIP3      3791            0.0000000000
     33692      3983  TIP3      H1             -2.9573837550      -29.5948335767      -26.5871542229  TIP3      3791            0.0000000000
     33693      3983  TIP3      H2             -2.3450513326      -30.9830849747      -26.5073013181  TIP3      3791            0.0000000000
     33694      3984  TIP3      OH2           -14.8192130788      -23.6229137137      -28.1588637966  TIP3      3792            0.0000000000
     33695      3984  TIP3      H1            -14.7278250758      -23.7567034770      -27.1990362871  TIP3      3792            0.0000000000
     33696      3984  TIP3      H2            -15.6732691988      -24.0868148457      -28.3074294012  TIP3      3792            0.0000000000
     33697      3985  TIP3      OH2           -12.0711266854      -34.4913828579      -32.2275890399  TIP3      3793            0.0000000000
     33698      3985  TIP3      H1            -12.9073313791      -34.9596232845      -32.3855443048  TIP3      3793            0.0000000000
     33699      3985  TIP3      H2            -12.2657708662      -33.9462181722      -31.4375412708  TIP3      3793            0.0000000000
     33700      3986  TIP3      OH2            -7.6845926061      -35.9557692340      -28.4029367760  TIP3      3794            0.0000000000
     33701      3986  TIP3      H1             -7.5445012343      -35.2213972239      -27.7980446190  TIP3      3794            0.0000000000
     33702      3986  TIP3      H2             -8.5737753833      -35.7278262258      -28.7494880731  TIP3      3794            0.0000000000
     33703      3987  TIP3      OH2            -4.8971471673      -31.4404004646      -27.3702369823  TIP3      3795            0.0000000000
     33704      3987  TIP3      H1             -5.2409718603      -31.8449998588      -26.5396465947  TIP3      3795            0.0000000000
     33705      3987  TIP3      H2             -4.5586998636      -30.5763861751      -27.0719184477  TIP3      3795            0.0000000000
     33706      3988  TIP3      OH2            -3.7926425088      -26.7241392031      -41.4907903630  TIP3      3796            0.0000000000
     33707      3988  TIP3      H1             -3.5928145106      -26.6645025012      -42.4378722656  TIP3      3796            0.0000000000
     33708      3988  TIP3      H2             -3.1303963600      -26.1019616881      -41.1443568259  TIP3      3796            0.0000000000
     33709      3989  TIP3      OH2            -7.6966807453      -32.8546163899      -41.4321696077  TIP3      3797            0.0000000000
     33710      3989  TIP3      H1             -7.9492173502      -32.7109065585      -40.5113846045  TIP3      3797            0.0000000000
     33711      3989  TIP3      H2             -8.2654037016      -33.5954759879      -41.6991924808  TIP3      3797            0.0000000000
     33712      3990  TIP3      OH2           -12.1777456620      -30.3834108837      -30.5854140776  TIP3      3798            0.0000000000
     33713      3990  TIP3      H1            -12.9476622803      -30.2546354399      -30.0030215725  TIP3      3798            0.0000000000
     33714      3990  TIP3      H2            -12.1287098238      -29.4582036041      -30.9360992737  TIP3      3798            0.0000000000
     33715      3991  TIP3      OH2           -12.1994990198      -29.9190562566      -36.1026974132  TIP3      3799            0.0000000000
     33716      3991  TIP3      H1            -13.0561822903      -30.3877256586      -36.1565059713  TIP3      3799            0.0000000000
     33717      3991  TIP3      H2            -12.0063692473      -29.7761958286      -37.0452285319  TIP3      3799            0.0000000000
     33718      3992  TIP3      OH2            -6.6472981048      -29.7462996319      -37.0866836926  TIP3      3800            0.0000000000
     33719      3992  TIP3      H1             -6.9978935736      -28.8946513752      -37.4421256838  TIP3      3800            0.0000000000
     33720      3992  TIP3      H2             -6.0621490413      -30.0158658088      -37.8219900223  TIP3      3800            0.0000000000
     33721      3993  TIP3      OH2            -7.5940004800      -29.0739267420      -25.8699621163  TIP3      3801            0.0000000000
     33722      3993  TIP3      H1             -8.1532261355      -29.8419538391      -25.6140835256  TIP3      3801            0.0000000000
     33723      3993  TIP3      H2             -6.8568264337      -29.2404045071      -25.2406510522  TIP3      3801            0.0000000000
     33724      3994  TIP3      OH2            -5.6063150388      -29.9146099326      -33.9534357953  TIP3      3802            0.0000000000
     33725      3994  TIP3      H1             -5.8668810300      -29.0654903608      -34.3598860535  TIP3      3802            0.0000000000
     33726      3994  TIP3      H2             -5.7876828640      -30.5261227568      -34.6897702437  TIP3      3802            0.0000000000
     33727      3995  TIP3      OH2           -14.8057448487      -30.1610084844      -29.2208310570  TIP3      3803            0.0000000000
     33728      3995  TIP3      H1            -14.4137518118      -29.9828221757      -28.3565875655  TIP3      3803            0.0000000000
     33729      3995  TIP3      H2            -14.9748612069      -31.1232226759      -29.1691091689  TIP3      3803            0.0000000000
     33730      3996  TIP3      OH2           -11.1178029536      -32.4916779178      -41.7703361673  TIP3      3804            0.0000000000
     33731      3996  TIP3      H1            -11.7473239800      -32.8843771969      -41.1174209968  TIP3      3804            0.0000000000
     33732      3996  TIP3      H2            -11.3859063469      -31.5670720876      -41.8473285020  TIP3      3804            0.0000000000
     33733      3997  TIP3      OH2           -17.3224038135      -32.7116174646      -35.1814801474  TIP3      3805            0.0000000000
     33734      3997  TIP3      H1            -16.9427119540      -32.8706537946      -34.2967122536  TIP3      3805            0.0000000000
     33735      3997  TIP3      H2            -17.1064296965      -33.5186454043      -35.6676970690  TIP3      3805            0.0000000000
     33736      3998  TIP3      OH2           -16.5436347319      -31.9448911448      -39.2576195051  TIP3      3806            0.0000000000
     33737      3998  TIP3      H1            -16.6780248855      -31.9876219612      -40.2201501155  TIP3      3806            0.0000000000
     33738      3998  TIP3      H2            -17.2983354101      -31.4030250572      -38.9548899199  TIP3      3806            0.0000000000
     33739      3999  TIP3      OH2            -6.5159316404      -28.4989898937      -29.9291485394  TIP3      3807            0.0000000000
     33740      3999  TIP3      H1             -5.9841519515      -29.2414982760      -30.3108170472  TIP3      3807            0.0000000000
     33741      3999  TIP3      H2             -7.1231964254      -28.9872113914      -29.3212701091  TIP3      3807            0.0000000000
     33742      4000  TIP3      OH2            -9.3952271000      -32.6508572849      -34.7780250752  TIP3      3808            0.0000000000
     33743      4000  TIP3      H1            -10.3227145654      -32.8237158696      -34.5786043052  TIP3      3808            0.0000000000
     33744      4000  TIP3      H2             -8.9556567495      -32.9763897338      -33.9636991746  TIP3      3808            0.0000000000
     33745      4001  TIP3      OH2           -14.7017336121      -31.2187981909      -36.8236319303  TIP3      3809            0.0000000000
     33746      4001  TIP3      H1            -15.4779876681      -30.6492451961      -36.6107952643  TIP3      3809            0.0000000000
     33747      4001  TIP3      H2            -14.8840734619      -32.0735533049      -36.3806130887  TIP3      3809            0.0000000000
     33748      4002  TIP3      OH2           -11.5045263108      -30.9408981880      -38.5579081119  TIP3      3810            0.0000000000
     33749      4002  TIP3      H1            -10.6190717323      -30.8448681582      -38.1535155668  TIP3      3810            0.0000000000
     33750      4002  TIP3      H2            -11.4643358735      -30.3347482373      -39.3217508769  TIP3      3810            0.0000000000
     33751      4003  TIP3      OH2            -5.0981862474      -33.2511077628      -31.4518215188  TIP3      3811            0.0000000000
     33752      4003  TIP3      H1             -5.9287494186      -33.1255498271      -30.9746932142  TIP3      3811            0.0000000000
     33753      4003  TIP3      H2             -5.4068803447      -33.7119619592      -32.2462103590  TIP3      3811            0.0000000000
     33754      4004  TIP3      OH2           -12.3769789492      -29.8961334589      -40.9539769441  TIP3      3812            0.0000000000
     33755      4004  TIP3      H1            -12.9002331705      -29.9427983732      -41.7692541416  TIP3      3812            0.0000000000
     33756      4004  TIP3      H2            -11.5695027903      -29.4504604352      -41.2872926126  TIP3      3812            0.0000000000
     33757      4005  TIP3      OH2            -2.3460456715      -17.9154695478      -25.1259133022  TIP3      3813            0.0000000000
     33758      4005  TIP3      H1             -2.0143520109      -17.3488863833      -25.8492274106  TIP3      3813            0.0000000000
     33759      4005  TIP3      H2             -1.6505676491      -17.7770047091      -24.4647006625  TIP3      3813            0.0000000000
     33760      4006  TIP3      OH2           -14.5287267788      -25.2009274527      -25.7288620204  TIP3      3814            0.0000000000
     33761      4006  TIP3      H1            -13.9481895784      -25.0799682696      -24.9555300582  TIP3      3814            0.0000000000
     33762      4006  TIP3      H2            -15.3812168871      -25.3316937136      -25.2476557039  TIP3      3814            0.0000000000
     33763      4007  TIP3      OH2            -8.8247926537      -29.6875732584      -33.1891533512  TIP3      3815            0.0000000000
     33764      4007  TIP3      H1             -8.0005814802      -30.1311970061      -33.4576055422  TIP3      3815            0.0000000000
     33765      4007  TIP3      H2             -9.2137348589      -30.3633064269      -32.6077684278  TIP3      3815            0.0000000000
     33766      4008  TIP3      OH2           -13.5317519337      -33.8307960789      -36.4779479533  TIP3      3816            0.0000000000
     33767      4008  TIP3      H1            -14.2943785982      -34.3395885802      -36.1187114555  TIP3      3816            0.0000000000
     33768      4008  TIP3      H2            -13.0309063738      -34.5477912023      -36.8914937770  TIP3      3816            0.0000000000
     33769      4009  TIP3      OH2            -9.7446732387      -31.5879646581      -30.9032057266  TIP3      3817            0.0000000000
     33770      4009  TIP3      H1            -10.5954089701      -31.1028331628      -30.7589156796  TIP3      3817            0.0000000000
     33771      4009  TIP3      H2             -9.1415818217      -31.1601032658      -30.2805660876  TIP3      3817            0.0000000000
     33772      4010  TIP3      OH2            -9.1408763724      -25.4161653043      -38.5380154509  TIP3      3818            0.0000000000
     33773      4010  TIP3      H1             -9.8935044669      -25.9182736520      -38.9251432505  TIP3      3818            0.0000000000
     33774      4010  TIP3      H2             -9.5599510232      -25.0810996102      -37.7035465095  TIP3      3818            0.0000000000
     33775      4011  TIP3      OH2            -1.7900648020      -25.6795275088      -29.9998062678  TIP3      3819            0.0000000000
     33776      4011  TIP3      H1             -1.2881345548      -25.1266878190      -30.6501552417  TIP3      3819            0.0000000000
     33777      4011  TIP3      H2             -2.6508846313      -25.7403787122      -30.4513414451  TIP3      3819            0.0000000000
     33778      4012  TIP3      OH2            -5.1114970986      -32.5222463459      -40.6325524626  TIP3      3820            0.0000000000
     33779      4012  TIP3      H1             -5.9607174081      -32.4398394791      -41.1116981445  TIP3      3820            0.0000000000
     33780      4012  TIP3      H2             -5.0300570843      -31.6302787641      -40.2447679091  TIP3      3820            0.0000000000
     33781      4013  TIP3      OH2            -8.0438826200      -24.9816760214      -27.4779004076  TIP3      3821            0.0000000000
     33782      4013  TIP3      H1             -8.3934955916      -25.3077541192      -26.6333375302  TIP3      3821            0.0000000000
     33783      4013  TIP3      H2             -8.2123705814      -24.0197694586      -27.3888506812  TIP3      3821            0.0000000000
     33784      4014  TIP3      OH2            -4.9866894968      -30.3929268936      -39.0725141511  TIP3      3822            0.0000000000
     33785      4014  TIP3      H1             -4.2520246499      -30.6820254475      -38.4870962903  TIP3      3822            0.0000000000
     33786      4014  TIP3      H2             -4.7269906674      -29.4776659481      -39.2886084550  TIP3      3822            0.0000000000
     33787      4015  TIP3      OH2           -14.2165231148      -25.8357795215      -33.3625923944  TIP3      3823            0.0000000000
     33788      4015  TIP3      H1            -13.5911533277      -25.8881934021      -34.1216929681  TIP3      3823            0.0000000000
     33789      4015  TIP3      H2            -13.7712612591      -26.3625751305      -32.6786983043  TIP3      3823            0.0000000000
     33790      4016  TIP3      OH2            -7.0193538862      -24.1362949120      -39.5227899717  TIP3      3824            0.0000000000
     33791      4016  TIP3      H1             -7.4373999807      -23.2614922627      -39.3316888039  TIP3      3824            0.0000000000
     33792      4016  TIP3      H2             -7.7636506711      -24.7283326493      -39.2758391187  TIP3      3824            0.0000000000
     33793      4017  TIP3      OH2           -16.8569155864      -27.6083025108      -28.0238123135  TIP3      3825            0.0000000000
     33794      4017  TIP3      H1            -17.0838130401      -28.1328326249      -27.2289653246  TIP3      3825            0.0000000000
     33795      4017  TIP3      H2            -17.5225155776      -27.9542470357      -28.6459247025  TIP3      3825            0.0000000000
     33796      4018  TIP3      OH2           -10.0637312079      -28.0039626412      -25.9215146290  TIP3      3826            0.0000000000
     33797      4018  TIP3      H1            -10.4282951839      -28.3886842648      -26.7282832663  TIP3      3826            0.0000000000
     33798      4018  TIP3      H2             -9.1405731351      -28.3471320044      -25.9554264777  TIP3      3826            0.0000000000
     33799      4019  TIP3      OH2            -5.0991363101      -22.6859833328      -27.3661732330  TIP3      3827            0.0000000000
     33800      4019  TIP3      H1             -5.8674793677      -22.6771378668      -27.9503794402  TIP3      3827            0.0000000000
     33801      4019  TIP3      H2             -5.3782957183      -22.0289716799      -26.6974763203  TIP3      3827            0.0000000000
     33802      4020  TIP3      OH2             0.1716330087      -30.2231304157      -38.9670469670  TIP3      3828            0.0000000000
     33803      4020  TIP3      H1             -0.2464412678      -30.5489280072      -39.7904219839  TIP3      3828            0.0000000000
     33804      4020  TIP3      H2              0.4116001038      -29.3290295842      -39.2775710181  TIP3      3828            0.0000000000
     33805      4021  TIP3      OH2             0.4492497065      -24.5836725741      -26.5691111123  TIP3      3829            0.0000000000
     33806      4021  TIP3      H1             -0.4104074405      -24.3574359898      -26.9859050810  TIP3      3829            0.0000000000
     33807      4021  TIP3      H2              0.9995692266      -24.7580695292      -27.3701906602  TIP3      3829            0.0000000000
     33808      4022  TIP3      OH2            -1.4529725584      -21.8896423326      -38.9875891873  TIP3      3830            0.0000000000
     33809      4022  TIP3      H1             -1.9411235651      -22.6742147755      -38.7341602840  TIP3      3830            0.0000000000
     33810      4022  TIP3      H2             -1.2380572069      -22.0441282242      -39.9256612872  TIP3      3830            0.0000000000
     33811      4023  TIP3      OH2            -4.1669679593      -26.5829917052      -31.8428079239  TIP3      3831            0.0000000000
     33812      4023  TIP3      H1             -5.0970810495      -26.8502292173      -31.9215180111  TIP3      3831            0.0000000000
     33813      4023  TIP3      H2             -3.7141442125      -27.3380981516      -32.2595756770  TIP3      3831            0.0000000000
     33814      4024  TIP3      OH2           -11.7289483733      -22.3384410850      -35.7906392330  TIP3      3832            0.0000000000
     33815      4024  TIP3      H1            -11.5619256645      -21.3926533626      -35.9997397439  TIP3      3832            0.0000000000
     33816      4024  TIP3      H2            -12.5848576550      -22.4294187499      -36.2154596275  TIP3      3832            0.0000000000
     33817      4025  TIP3      OH2           -15.9616461779      -27.3167094181      -41.2533334450  TIP3      3833            0.0000000000
     33818      4025  TIP3      H1            -15.5152178142      -26.6885202425      -40.6520788898  TIP3      3833            0.0000000000
     33819      4025  TIP3      H2            -16.8948432171      -27.2270248398      -40.9840534030  TIP3      3833            0.0000000000
     33820      4026  TIP3      OH2           -10.4148192983      -24.6135609851      -36.2644317381  TIP3      3834            0.0000000000
     33821      4026  TIP3      H1            -10.8644071757      -23.7567209691      -36.0727550844  TIP3      3834            0.0000000000
     33822      4026  TIP3      H2            -10.8603008317      -25.2214529092      -35.6426768967  TIP3      3834            0.0000000000
     33823      4027  TIP3      OH2            -9.6559564620      -20.4790863147      -29.3650558397  TIP3      3835            0.0000000000
     33824      4027  TIP3      H1             -8.9474328404      -19.8734809856      -29.6772490094  TIP3      3835            0.0000000000
     33825      4027  TIP3      H2             -9.1815819571      -20.9317270521      -28.6437728586  TIP3      3835            0.0000000000
     33826      4028  TIP3      OH2           -11.5540952967      -19.8157295061      -36.7024487912  TIP3      3836            0.0000000000
     33827      4028  TIP3      H1            -12.5108315835      -19.7109051089      -36.4966448842  TIP3      3836            0.0000000000
     33828      4028  TIP3      H2            -11.2140535203      -18.9814963694      -36.3215142649  TIP3      3836            0.0000000000
     33829      4029  TIP3      OH2            -6.5930943556      -24.6677040816      -30.0641126951  TIP3      3837            0.0000000000
     33830      4029  TIP3      H1             -6.9816458752      -24.8995511170      -29.1904964058  TIP3      3837            0.0000000000
     33831      4029  TIP3      H2             -6.2691068240      -25.5408647681      -30.3606636113  TIP3      3837            0.0000000000
     33832      4030  TIP3      OH2            -3.8710337910      -23.3846173261      -40.5685763640  TIP3      3838            0.0000000000
     33833      4030  TIP3      H1             -3.6585383376      -23.9883180227      -39.8236863183  TIP3      3838            0.0000000000
     33834      4030  TIP3      H2             -4.8140941311      -23.5934132517      -40.6810023984  TIP3      3838            0.0000000000
     33835      4031  TIP3      OH2            -3.3484550117      -20.1028703232      -27.7802785713  TIP3      3839            0.0000000000
     33836      4031  TIP3      H1             -4.2450070721      -20.4458366809      -27.9639498916  TIP3      3839            0.0000000000
     33837      4031  TIP3      H2             -3.2780917877      -19.4045991769      -28.4780297512  TIP3      3839            0.0000000000
     33838      4032  TIP3      OH2             0.4093650061      -19.1866315645      -40.6640632415  TIP3      3840            0.0000000000
     33839      4032  TIP3      H1              0.4419047713      -18.6650898384      -41.4835185681  TIP3      3840            0.0000000000
     33840      4032  TIP3      H2             -0.1254486194      -18.5788025400      -40.1004848867  TIP3      3840            0.0000000000
     33841      4033  TIP3      OH2           -15.1767077977      -32.8071888795      -28.1915783786  TIP3      3841            0.0000000000
     33842      4033  TIP3      H1            -15.9676261120      -32.3389448843      -27.8827529486  TIP3      3841            0.0000000000
     33843      4033  TIP3      H2            -15.2696776536      -33.6588128117      -27.7060403226  TIP3      3841            0.0000000000
     33844      4034  TIP3      OH2            -3.1095771566      -25.1327466131      -38.5606179792  TIP3      3842            0.0000000000
     33845      4034  TIP3      H1             -3.3089597189      -26.0062501690      -38.1496541511  TIP3      3842            0.0000000000
     33846      4034  TIP3      H2             -2.1447591066      -25.0648253578      -38.4010793876  TIP3      3842            0.0000000000
     33847      4035  TIP3      OH2           -15.6158339447      -21.0833915807      -29.9892928754  TIP3      3843            0.0000000000
     33848      4035  TIP3      H1            -15.0172335227      -21.8380046184      -29.9545794634  TIP3      3843            0.0000000000
     33849      4035  TIP3      H2            -15.5462158283      -20.7574292949      -29.0808226723  TIP3      3843            0.0000000000
     33850      4036  TIP3      OH2           -11.2016180332      -22.9322116844      -39.9799866254  TIP3      3844            0.0000000000
     33851      4036  TIP3      H1            -10.5855500372      -23.3575900979      -39.3612606457  TIP3      3844            0.0000000000
     33852      4036  TIP3      H2            -11.0284578432      -21.9731629613      -39.7979112866  TIP3      3844            0.0000000000
     33853      4037  TIP3      OH2           -14.6161408094      -25.6622793623      -39.5461289465  TIP3      3845            0.0000000000
     33854      4037  TIP3      H1            -15.2792075686      -25.1770884954      -39.0043044213  TIP3      3845            0.0000000000
     33855      4037  TIP3      H2            -14.1038676789      -24.9328432916      -39.9473048568  TIP3      3845            0.0000000000
     33856      4038  TIP3      OH2            -6.8325998455      -33.0736458249      -29.1140273844  TIP3      3846            0.0000000000
     33857      4038  TIP3      H1             -6.0891467523      -32.5485633900      -28.7567291434  TIP3      3846            0.0000000000
     33858      4038  TIP3      H2             -6.5516431121      -33.9857278620      -29.0178620184  TIP3      3846            0.0000000000
     33859      4039  TIP3      OH2            -6.0704030722      -33.4278847437      -38.0382895733  TIP3      3847            0.0000000000
     33860      4039  TIP3      H1             -5.6315679095      -33.0065859295      -38.8032162834  TIP3      3847            0.0000000000
     33861      4039  TIP3      H2             -5.6799159788      -32.9344597918      -37.2841689886  TIP3      3847            0.0000000000
     33862      4040  TIP3      OH2            -8.1102598142      -21.7009380600      -38.9613679026  TIP3      3848            0.0000000000
     33863      4040  TIP3      H1             -8.7252397047      -20.9647213153      -38.7957298140  TIP3      3848            0.0000000000
     33864      4040  TIP3      H2             -7.7083003226      -21.3931103396      -39.7894895726  TIP3      3848            0.0000000000
     33865      4041  TIP3      OH2            -8.9253114863      -31.5510863930      -37.4253763734  TIP3      3849            0.0000000000
     33866      4041  TIP3      H1             -8.1860605917      -30.9103994268      -37.3708411966  TIP3      3849            0.0000000000
     33867      4041  TIP3      H2             -9.0336179871      -31.8560985465      -36.4961577303  TIP3      3849            0.0000000000
     33868      4042  TIP3      OH2            -7.7744868484      -30.2976602236      -28.3290571995  TIP3      3850            0.0000000000
     33869      4042  TIP3      H1             -7.5757716026      -29.9697218101      -27.4220205441  TIP3      3850            0.0000000000
     33870      4042  TIP3      H2             -7.4810589980      -31.2259898590      -28.3137687526  TIP3      3850            0.0000000000
     33871      4043  TIP3      OH2            -7.6467784035      -34.7949008883      -36.1165265682  TIP3      3851            0.0000000000
     33872      4043  TIP3      H1             -8.0713893942      -34.0069621259      -35.7201012741  TIP3      3851            0.0000000000
     33873      4043  TIP3      H2             -7.0976680722      -34.3821264945      -36.8206729667  TIP3      3851            0.0000000000
     33874      4044  TIP3      OH2           -10.7903380000      -20.3967902009      -39.3258906582  TIP3      3852            0.0000000000
     33875      4044  TIP3      H1            -10.5520400011      -19.5291334478      -39.7292999771  TIP3      3852            0.0000000000
     33876      4044  TIP3      H2            -11.1527427709      -20.0743755545      -38.4743045643  TIP3      3852            0.0000000000
     33877      4045  TIP3      OH2           -12.2524491367      -33.5092604496      -39.5967712605  TIP3      3853            0.0000000000
     33878      4045  TIP3      H1            -12.1367225881      -32.7724741230      -38.9702396149  TIP3      3853            0.0000000000
     33879      4045  TIP3      H2            -11.4038317538      -33.9666287018      -39.3839965837  TIP3      3853            0.0000000000
     33880      4046  TIP3      OH2            -2.3469875133      -32.8144390200      -27.1357898627  TIP3      3854            0.0000000000
     33881      4046  TIP3      H1             -3.2502372906      -32.6267449170      -27.4523045643  TIP3      3854            0.0000000000
     33882      4046  TIP3      H2             -1.8226250695      -32.8045500987      -27.9647482791  TIP3      3854            0.0000000000
     33883      4047  TIP3      OH2            -3.0484072891      -28.9454750949      -33.3964889372  TIP3      3855            0.0000000000
     33884      4047  TIP3      H1             -3.8562684918      -29.4944690750      -33.3577113487  TIP3      3855            0.0000000000
     33885      4047  TIP3      H2             -2.3993610847      -29.4414225789      -32.8645102531  TIP3      3855            0.0000000000
     33886      4048  TIP3      OH2           -13.8660744542      -23.0429315348      -40.8830670097  TIP3      3856            0.0000000000
     33887      4048  TIP3      H1            -13.0587426556      -22.7297594970      -40.4263443905  TIP3      3856            0.0000000000
     33888      4048  TIP3      H2            -13.4396769745      -23.5162569823      -41.6135448755  TIP3      3856            0.0000000000
     33889      4049  TIP3      OH2           -15.6150412553      -30.0392974778      -41.2967280109  TIP3      3857            0.0000000000
     33890      4049  TIP3      H1            -15.6810201196      -29.0598288795      -41.3477222994  TIP3      3857            0.0000000000
     33891      4049  TIP3      H2            -16.3884184645      -30.3250045255      -41.7970597307  TIP3      3857            0.0000000000
     33892      4050  TIP3      OH2            -2.3349248393      -19.7421780363      -31.8056950615  TIP3      3858            0.0000000000
     33893      4050  TIP3      H1             -2.2331980294      -18.8840032315      -32.2884602339  TIP3      3858            0.0000000000
     33894      4050  TIP3      H2             -1.3850544662      -19.9492296594      -31.7333402677  TIP3      3858            0.0000000000
     33895      4051  TIP3      OH2           -14.8563297670      -35.5088275533      -32.4533987795  TIP3      3859            0.0000000000
     33896      4051  TIP3      H1            -14.7475921968      -35.5777943810      -33.4164640260  TIP3      3859            0.0000000000
     33897      4051  TIP3      H2            -14.4939742385      -36.3437227583      -32.1243449646  TIP3      3859            0.0000000000
     33898      4052  TIP3      OH2           -16.1381241362      -21.4601457223      -36.8205647577  TIP3      3860            0.0000000000
     33899      4052  TIP3      H1            -17.0454570393      -21.2471834351      -36.5795534609  TIP3      3860            0.0000000000
     33900      4052  TIP3      H2            -16.0900330492      -20.9820843362      -37.6814201612  TIP3      3860            0.0000000000
     33901      4053  TIP3      OH2           -16.8265045017      -19.0607889246      -25.4710807579  TIP3      3861            0.0000000000
     33902      4053  TIP3      H1            -16.1827525670      -19.2239382496      -24.7439297444  TIP3      3861            0.0000000000
     33903      4053  TIP3      H2            -17.1498364630      -19.9683900739      -25.6142012143  TIP3      3861            0.0000000000
     33904      4054  TIP3      OH2           -12.4815090804      -19.7517538390      -24.2558932661  TIP3      3862            0.0000000000
     33905      4054  TIP3      H1            -11.9115727977      -20.1476789100      -23.5819853507  TIP3      3862            0.0000000000
     33906      4054  TIP3      H2            -12.3316814766      -20.3096174746      -25.0558064737  TIP3      3862            0.0000000000
     33907      4055  TIP3      OH2            -6.9878295741      -20.6381912977      -41.4715568642  TIP3      3863            0.0000000000
     33908      4055  TIP3      H1             -7.5795576296      -21.1463603769      -42.0620323742  TIP3      3863            0.0000000000
     33909      4055  TIP3      H2             -6.4043163033      -20.2571862509      -42.1616905264  TIP3      3863            0.0000000000
     33910      4056  TIP3      OH2            -5.6704145199      -21.2842618705      -25.0985530271  TIP3      3864            0.0000000000
     33911      4056  TIP3      H1             -5.7428834872      -22.1962314681      -24.7838288677  TIP3      3864            0.0000000000
     33912      4056  TIP3      H2             -4.8103797621      -21.0332361511      -24.6721204475  TIP3      3864            0.0000000000
     33913      4057  TIP3      OH2            -2.8189481564      -20.8894001792      -42.1615374733  TIP3      3865            0.0000000000
     33914      4057  TIP3      H1             -3.2587148325      -21.6539707583      -41.7502723754  TIP3      3865            0.0000000000
     33915      4057  TIP3      H2             -1.9050459385      -21.0502055034      -41.8601464007  TIP3      3865            0.0000000000
     33916      4058  TIP3      OH2           -16.8441627183      -25.5986323973      -24.4765539224  TIP3      3866            0.0000000000
     33917      4058  TIP3      H1            -17.0147650262      -26.5572538807      -24.4688733610  TIP3      3866            0.0000000000
     33918      4058  TIP3      H2            -17.4807098220      -25.2857828530      -25.1536960538  TIP3      3866            0.0000000000
     33919      4059  TIP3      OH2           -12.2121397479      -25.2291698233      -42.1001980316  TIP3      3867            0.0000000000
     33920      4059  TIP3      H1            -11.6892976241      -25.3460681041      -41.2889253720  TIP3      3867            0.0000000000
     33921      4059  TIP3      H2            -11.6354446572      -25.6454818480      -42.7779979768  TIP3      3867            0.0000000000
     33922      4060  TIP3      OH2           -10.0916096917      -25.3257288293      -25.3615377343  TIP3      3868            0.0000000000
     33923      4060  TIP3      H1            -10.4371591459      -24.8075332617      -26.1332672205  TIP3      3868            0.0000000000
     33924      4060  TIP3      H2            -10.1596333359      -26.2655716057      -25.6590061459  TIP3      3868            0.0000000000
     33925      4061  TIP3      OH2            -4.4599144063      -25.4057296076      -27.4283899970  TIP3      3869            0.0000000000
     33926      4061  TIP3      H1             -3.5798708332      -24.9853463367      -27.5299202327  TIP3      3869            0.0000000000
     33927      4061  TIP3      H2             -4.9522732858      -24.5623078774      -27.3565424191  TIP3      3869            0.0000000000
     33928      4062  TIP3      OH2           -15.9793268476      -28.2796769722      -24.8156131132  TIP3      3870            0.0000000000
     33929      4062  TIP3      H1            -15.0704844223      -27.9905943912      -24.6952418916  TIP3      3870            0.0000000000
     33930      4062  TIP3      H2            -15.9835768932      -29.0569036548      -24.2126395379  TIP3      3870            0.0000000000
     33931      4063  TIP3      OH2           -11.1256953842      -26.8155347827      -39.8276317488  TIP3      3871            0.0000000000
     33932      4063  TIP3      H1            -11.8109350451      -27.3482422656      -39.3774830846  TIP3      3871            0.0000000000
     33933      4063  TIP3      H2            -10.7769607242      -27.4271738016      -40.5018643407  TIP3      3871            0.0000000000
     33934      4064  TIP3      OH2           -12.1751697710      -29.2785559995      -28.1065521210  TIP3      3872            0.0000000000
     33935      4064  TIP3      H1            -12.7330303420      -28.5335068732      -27.7978668368  TIP3      3872            0.0000000000
     33936      4064  TIP3      H2            -11.4821684664      -28.7824912316      -28.5788352965  TIP3      3872            0.0000000000
     33937      4065  TIP3      OH2           -10.0645006355      -28.7363478822      -41.8682273428  TIP3      3873            0.0000000000
     33938      4065  TIP3      H1             -9.8893416341      -28.4267311835      -42.7793076913  TIP3      3873            0.0000000000
     33939      4065  TIP3      H2             -9.1896815456      -28.5617000634      -41.4375833619  TIP3      3873            0.0000000000
     33940      4066  TIP3      OH2            -6.4232218322      -26.0461568100      -24.3052105045  TIP3      3874            0.0000000000
     33941      4066  TIP3      H1             -6.0052714273      -26.5018423321      -25.0536669481  TIP3      3874            0.0000000000
     33942      4066  TIP3      H2             -6.6701189644      -26.7685608846      -23.6968785984  TIP3      3874            0.0000000000
     33943      4067  TIP3      OH2            -1.0919592993      -25.8660729488       42.3724291971  TIP3      3875            0.0000000000
     33944      4067  TIP3      H1             -1.4351028440      -25.5957631140       41.5095612887  TIP3      3875            0.0000000000
     33945      4067  TIP3      H2             -0.7512410011      -25.0323366547       42.7220251444  TIP3      3875            0.0000000000
     33946      4068  TIP3      OH2           -11.2789017566      -31.3914811234      -26.7989440526  TIP3      3876            0.0000000000
     33947      4068  TIP3      H1            -11.1711398232      -32.0859874501      -27.4850325138  TIP3      3876            0.0000000000
     33948      4068  TIP3      H2            -11.5463281502      -30.6214726603      -27.3516653972  TIP3      3876            0.0000000000
     33949      4069  TIP3      OH2           -10.7285714559      -33.1237969432      -28.8141319821  TIP3      3877            0.0000000000
     33950      4069  TIP3      H1            -10.0808845799      -32.7888376680      -29.4648243210  TIP3      3877            0.0000000000
     33951      4069  TIP3      H2            -11.5528335279      -33.0775575214      -29.3489017859  TIP3      3877            0.0000000000
     33952      4070  TIP3      OH2           -10.0296002337      -27.5466653611      -28.8679974200  TIP3      3878            0.0000000000
     33953      4070  TIP3      H1             -9.1154855539      -27.3774810881      -29.1275165438  TIP3      3878            0.0000000000
     33954      4070  TIP3      H2            -10.4898401367      -26.7794623733      -29.2670095314  TIP3      3878            0.0000000000
     33955      4071  TIP3      OH2            -5.7729259407      -29.8574039844      -24.1389035906  TIP3      3879            0.0000000000
     33956      4071  TIP3      H1             -5.6274574337      -30.8196886498      -24.1008269294  TIP3      3879            0.0000000000
     33957      4071  TIP3      H2             -4.8823461294      -29.4901133329      -24.0295895181  TIP3      3879            0.0000000000
     33958      4072  TIP3      OH2            -3.6469035238      -27.1411979747      -25.4582561449  TIP3      3880            0.0000000000
     33959      4072  TIP3      H1             -3.9817622540      -26.4888606149      -26.1071551141  TIP3      3880            0.0000000000
     33960      4072  TIP3      H2             -2.7016029369      -27.2223539297      -25.7170221658  TIP3      3880            0.0000000000
     33961      4073  TIP3      OH2           -13.2300840209      -30.4149709728      -24.5672020242  TIP3      3881            0.0000000000
     33962      4073  TIP3      H1            -13.8682461143      -31.1377546285      -24.7115863555  TIP3      3881            0.0000000000
     33963      4073  TIP3      H2            -12.5814889432      -30.5772483422      -25.2632348168  TIP3      3881            0.0000000000
     33964      4074  TIP3      OH2           -10.3001299346      -35.6484240147      -29.2729095295  TIP3      3882            0.0000000000
     33965      4074  TIP3      H1            -10.4347640654      -34.7389466242      -28.9040254686  TIP3      3882            0.0000000000
     33966      4074  TIP3      H2            -11.1723402853      -35.7694651366      -29.6855131215  TIP3      3882            0.0000000000
     33967      4075  TIP3      OH2            -9.0426602181      -31.3779752559      -25.1912227735  TIP3      3883            0.0000000000
     33968      4075  TIP3      H1             -9.3164918088      -31.5133002249      -24.2676869158  TIP3      3883            0.0000000000
     33969      4075  TIP3      H2             -9.8868314647      -31.5582914116      -25.6749795531  TIP3      3883            0.0000000000
     33970      4076  TIP3      OH2            -6.5354270244      -32.6602737108      -25.6656488700  TIP3      3884            0.0000000000
     33971      4076  TIP3      H1             -7.3852208686      -32.3830846119      -25.2650324587  TIP3      3884            0.0000000000
     33972      4076  TIP3      H2             -6.0221401381      -32.9596454738      -24.8871226383  TIP3      3884            0.0000000000
     33973      4077  TIP3      OH2            -4.6562614903      -33.3487654106      -23.9066742821  TIP3      3885            0.0000000000
     33974      4077  TIP3      H1             -4.6190340280      -34.2944529104      -23.6491910866  TIP3      3885            0.0000000000
     33975      4077  TIP3      H2             -4.7503180790      -32.8829647694      -23.0506599803  TIP3      3885            0.0000000000
     33976      4078  TIP3      OH2           -14.9572741058      -32.6807759098      -24.2121375864  TIP3      3886            0.0000000000
     33977      4078  TIP3      H1            -14.9464320099      -33.3454577522      -24.9218854013  TIP3      3886            0.0000000000
     33978      4078  TIP3      H2            -14.7868012734      -33.2010355877      -23.4082593650  TIP3      3886            0.0000000000
     33979      4079  TIP3      OH2            -9.8519926557       36.4442848341      -26.1063940621  TIP3      3887            0.0000000000
     33980      4079  TIP3      H1            -10.2795245922       35.6795011337      -25.7161189255  TIP3      3887            0.0000000000
     33981      4079  TIP3      H2            -10.3956566627       36.6697969454      -26.8702085650  TIP3      3887            0.0000000000
     33982      4080  TIP3      OH2           -10.4058524422      -35.5036474092      -23.1770137577  TIP3      3888            0.0000000000
     33983      4080  TIP3      H1             -9.9162788696      -35.4010483844      -24.0062594275  TIP3      3888            0.0000000000
     33984      4080  TIP3      H2            -10.0962579776      -34.7551071997      -22.6329424547  TIP3      3888            0.0000000000
     33985      4081  TIP3      OH2           -10.2907562268      -18.1364552298      -40.5160236467  TIP3      3889            0.0000000000
     33986      4081  TIP3      H1             -9.3308389703      -17.9982581174      -40.6406812142  TIP3      3889            0.0000000000
     33987      4081  TIP3      H2            -10.6120184453      -17.7453358359      -41.3308656211  TIP3      3889            0.0000000000
     33988      4082  TIP3      OH2           -16.8125240594      -23.6123021041      -41.0705941235  TIP3      3890            0.0000000000
     33989      4082  TIP3      H1            -15.9041058207      -23.2560444584      -41.1054427689  TIP3      3890            0.0000000000
     33990      4082  TIP3      H2            -16.8950949292      -23.9220021745      -41.9875646593  TIP3      3890            0.0000000000
     33991      4083  TIP3      OH2           -17.6380193019      -18.5298324322      -36.4635298934  TIP3      3891            0.0000000000
     33992      4083  TIP3      H1            -18.5008053170      -18.9584137757      -36.6667336226  TIP3      3891            0.0000000000
     33993      4083  TIP3      H2            -17.4031112939      -19.0026457937      -35.6371620430  TIP3      3891            0.0000000000
     33994      4084  TIP3      OH2           -17.0296601788      -19.9684013498      -34.3105330483  TIP3      3892            0.0000000000
     33995      4084  TIP3      H1            -17.5554641230      -20.6608730675      -33.8795603191  TIP3      3892            0.0000000000
     33996      4084  TIP3      H2            -16.4262146491      -19.7024189005      -33.5808601137  TIP3      3892            0.0000000000
     33997      4085  TIP3      OH2             0.3710251408      -19.3503945532      -31.7889178365  TIP3      3893            0.0000000000
     33998      4085  TIP3      H1              0.7371317222      -19.3630957972      -30.8946922624  TIP3      3893            0.0000000000
     33999      4085  TIP3      H2              0.8391032914      -18.5941124764      -32.1727488796  TIP3      3893            0.0000000000
     34000      4086  TIP3      OH2            -0.0105652854      -19.7491955526      -28.5891778528  TIP3      3894            0.0000000000
     34001      4086  TIP3      H1             -0.3822578489      -20.5319614984      -29.0544143770  TIP3      3894            0.0000000000
     34002      4086  TIP3      H2              0.2962994725      -20.1659083262      -27.7574705715  TIP3      3894            0.0000000000
     34003      4087  TIP3      OH2            -0.9491280742      -23.6110090459      -23.5265881372  TIP3      3895            0.0000000000
     34004      4087  TIP3      H1             -1.8259922461      -23.5138977177      -23.1171035737  TIP3      3895            0.0000000000
     34005      4087  TIP3      H2             -0.3850536275      -23.3883387249      -22.7552008692  TIP3      3895            0.0000000000
     34006      4088  TIP3      OH2            -0.2717857986      -25.6059212466      -38.6261759674  TIP3      3896            0.0000000000
     34007      4088  TIP3      H1              0.5351838780      -25.0779479961      -38.4090398208  TIP3      3896            0.0000000000
     34008      4088  TIP3      H2             -0.3545298531      -26.1509950113      -37.8082145277  TIP3      3896            0.0000000000
     34009      4089  TIP3      OH2            -0.1389559912      -27.1436584332      -36.4054813826  TIP3      3897            0.0000000000
     34010      4089  TIP3      H1             -0.7906572527      -27.7713559505      -36.0126195924  TIP3      3897            0.0000000000
     34011      4089  TIP3      H2              0.4737335823      -27.0179952368      -35.6566191733  TIP3      3897            0.0000000000
     34012      4090  TIP3      OH2            -0.2257748589      -24.7595644377      -31.9243920858  TIP3      3898            0.0000000000
     34013      4090  TIP3      H1              0.4722653828      -25.4486222682      -31.9223121581  TIP3      3898            0.0000000000
     34014      4090  TIP3      H2              0.2451848319      -23.9974281378      -32.3014027565  TIP3      3898            0.0000000000
     34015      4091  TIP3      OH2            -1.4667935855      -21.8529125285      -29.3315765985  TIP3      3899            0.0000000000
     34016      4091  TIP3      H1             -2.1565427708      -21.4510953439      -28.7670500113  TIP3      3899            0.0000000000
     34017      4091  TIP3      H2             -1.9515251230      -22.0503008150      -30.1624698322  TIP3      3899            0.0000000000
     34018      4092  TIP3      OH2             0.1763170618      -27.7730410855      -40.3239536196  TIP3      3900            0.0000000000
     34019      4092  TIP3      H1             -0.5926432538      -27.6038324510      -40.8928821266  TIP3      3900            0.0000000000
     34020      4092  TIP3      H2              0.0972925788      -27.0205987768      -39.6945460142  TIP3      3900            0.0000000000
     34021      4093  TIP3      OH2            -1.9047493699      -30.3216720290      -41.4944526155  TIP3      3901            0.0000000000
     34022      4093  TIP3      H1             -1.0897262953      -29.9048732992      -41.8254550452  TIP3      3901            0.0000000000
     34023      4093  TIP3      H2             -1.9323052908      -31.1246751525      -42.0586832466  TIP3      3901            0.0000000000
     34024      4094  TIP3      OH2            -1.9544227783      -28.9202514990      -35.7379649135  TIP3      3902            0.0000000000
     34025      4094  TIP3      H1             -2.2081590067      -29.8248630019      -35.9502280774  TIP3      3902            0.0000000000
     34026      4094  TIP3      H2             -2.2821873058      -28.8533179252      -34.8077051250  TIP3      3902            0.0000000000
     34027      4095  TIP3      OH2           -17.1807982902      -26.6249289303      -31.6559228452  TIP3      3903            0.0000000000
     34028      4095  TIP3      H1            -17.2920892604      -26.9553519129      -32.5779332403  TIP3      3903            0.0000000000
     34029      4095  TIP3      H2            -16.2591954520      -26.9361160341      -31.4623887997  TIP3      3903            0.0000000000
     34030      4096  TIP3      OH2            -0.9956490716      -26.9835651234      -26.4214200420  TIP3      3904            0.0000000000
     34031      4096  TIP3      H1             -0.6466691661      -27.8880552886      -26.2641445185  TIP3      3904            0.0000000000
     34032      4096  TIP3      H2             -0.2076790025      -26.4541200924      -26.6375628422  TIP3      3904            0.0000000000
     34033      4097  TIP3      OH2            -0.1184443964      -29.4205888963      -26.0953462512  TIP3      3905            0.0000000000
     34034      4097  TIP3      H1             -0.9553510091      -29.7475526232      -25.6956866207  TIP3      3905            0.0000000000
     34035      4097  TIP3      H2              0.5066076722      -30.1367518891      -25.8428877614  TIP3      3905            0.0000000000
     34036      4098  TIP3      OH2            -1.8904799713      -32.7452021744      -42.6357161325  TIP3      3906            0.0000000000
     34037      4098  TIP3      H1             -1.2938084463      -33.1346919625      -41.9593161856  TIP3      3906            0.0000000000
     34038      4098  TIP3      H2             -2.7911725871      -32.9980286864      -42.3688993557  TIP3      3906            0.0000000000
     34039      4099  TIP3      OH2            -2.8715328619      -31.2189632657      -37.5960898328  TIP3      3907            0.0000000000
     34040      4099  TIP3      H1             -2.5079554589      -32.0522908346      -37.2303847535  TIP3      3907            0.0000000000
     34041      4099  TIP3      H2             -2.2153328012      -31.0627083119      -38.2901249016  TIP3      3907            0.0000000000
     34042      4100  TIP3      OH2            -1.3251104197      -30.6222937979      -31.9043050473  TIP3      3908            0.0000000000
     34043      4100  TIP3      H1             -0.3473663459      -30.5282866143      -31.8079121180  TIP3      3908            0.0000000000
     34044      4100  TIP3      H2             -1.5789972066      -30.2786725437      -31.0244854765  TIP3      3908            0.0000000000
     34045      4101  TIP3      OH2            -1.6198074618      -29.9720215458      -29.3009840702  TIP3      3909            0.0000000000
     34046      4101  TIP3      H1             -2.3584839014      -29.7023700161      -28.7274426630  TIP3      3909            0.0000000000
     34047      4101  TIP3      H2             -1.1591555605      -29.1163489946      -29.4357093683  TIP3      3909            0.0000000000
     34048      4102  TIP3      OH2           -17.1925679334      -31.6087999640      -25.7039585875  TIP3      3910            0.0000000000
     34049      4102  TIP3      H1            -16.3256664053      -31.8728213834      -25.3540538946  TIP3      3910            0.0000000000
     34050      4102  TIP3      H2            -17.5813242038      -32.4886825453      -25.9113082212  TIP3      3910            0.0000000000
     34051      4103  TIP3      OH2             0.2485838123      -36.8582436841      -24.0838962274  TIP3      3911            0.0000000000
     34052      4103  TIP3      H1              0.4482064320      -37.2708964657      -24.9528127193  TIP3      3911            0.0000000000
     34053      4103  TIP3      H2              0.6304958215      -35.9680033129      -24.1766868149  TIP3      3911            0.0000000000
     34054      4104  TIP3      OH2            -1.8816013256      -33.7438026496      -37.1564693718  TIP3      3912            0.0000000000
     34055      4104  TIP3      H1             -1.4123318542      -34.1483742711      -36.3969393043  TIP3      3912            0.0000000000
     34056      4104  TIP3      H2             -2.2524241404      -34.5542048497      -37.5540595252  TIP3      3912            0.0000000000
     34057      4105  TIP3      OH2           -16.3505319253      -33.2613263833      -32.6367079699  TIP3      3913            0.0000000000
     34058      4105  TIP3      H1            -15.9471463530      -34.1107514389      -32.3594733952  TIP3      3913            0.0000000000
     34059      4105  TIP3      H2            -15.5787102669      -32.6755722424      -32.5705557041  TIP3      3913            0.0000000000
     34060      4106  TIP3      OH2           -17.7945712865      -30.2673878361      -31.4774957857  TIP3      3914            0.0000000000
     34061      4106  TIP3      H1            -17.1529303999      -30.5326470117      -32.1597336666  TIP3      3914            0.0000000000
     34062      4106  TIP3      H2            -17.5031614329      -29.3662405495      -31.2853439986  TIP3      3914            0.0000000000
     34063      4107  TIP3      OH2            -0.1804670867      -34.0557357991      -25.7539748523  TIP3      3915            0.0000000000
     34064      4107  TIP3      H1             -0.9215459579      -33.4888617099      -26.0416679817  TIP3      3915            0.0000000000
     34065      4107  TIP3      H2             -0.1995634459      -34.6941772157      -26.4909697191  TIP3      3915            0.0000000000
     34066      4108  TIP3      OH2            -0.0208389485      -33.7636449816      -40.9059317600  TIP3      3916            0.0000000000
     34067      4108  TIP3      H1              0.3446298776      -34.6170331045      -41.2050560947  TIP3      3916            0.0000000000
     34068      4108  TIP3      H2              0.7889734151      -33.2373245276      -40.7622031868  TIP3      3916            0.0000000000
     34069      4109  TIP3      OH2           -17.3000469750      -34.3532342710      -37.9309148997  TIP3      3917            0.0000000000
     34070      4109  TIP3      H1            -18.2386341044      -34.5783618169      -37.8973152236  TIP3      3917            0.0000000000
     34071      4109  TIP3      H2            -17.3150272737      -33.5049098997      -38.4086047033  TIP3      3917            0.0000000000
     34072      4110  TIP3      OH2            -2.7968641926      -18.7700213277      -35.6076090941  TIP3      3918            0.0000000000
     34073      4110  TIP3      H1             -2.0919613651      -19.1297842796      -36.1802047245  TIP3      3918            0.0000000000
     34074      4110  TIP3      H2             -2.3140607882      -18.3449575100      -34.8786381887  TIP3      3918            0.0000000000
     34075      4111  TIP3      OH2           -17.5336152135      -35.4826371604      -29.7133883197  TIP3      3919            0.0000000000
     34076      4111  TIP3      H1            -18.0886276467      -35.5010044553      -28.9196307100  TIP3      3919            0.0000000000
     34077      4111  TIP3      H2            -18.0574552959      -34.8957881560      -30.2991863416  TIP3      3919            0.0000000000
     34078      4112  TIP3      OH2           -15.2393582058      -22.3006168313      -25.3534165325  TIP3      3920            0.0000000000
     34079      4112  TIP3      H1            -15.9809790598      -21.8732652378      -25.8002027624  TIP3      3920            0.0000000000
     34080      4112  TIP3      H2            -15.5521247767      -22.3116770855      -24.4423481435  TIP3      3920            0.0000000000
     34081      4113  TIP3      OH2           -12.2636624658      -20.5856283188      -28.7625354631  TIP3      3921            0.0000000000
     34082      4113  TIP3      H1            -12.3373816225      -19.7162846426      -29.2164559663  TIP3      3921            0.0000000000
     34083      4113  TIP3      H2            -11.3029302792      -20.7396228654      -28.8747059821  TIP3      3921            0.0000000000
     34084      4114  TIP3      OH2            -8.3955415327      -19.5507832635      -26.3693343611  TIP3      3922            0.0000000000
     34085      4114  TIP3      H1             -8.3105246929      -19.8495026056      -25.4362077816  TIP3      3922            0.0000000000
     34086      4114  TIP3      H2             -7.5084597389      -19.1651336078      -26.5318111049  TIP3      3922            0.0000000000
     34087      4115  TIP3      OH2            -6.1185370987      -17.9692763330      -26.8444650669  TIP3      3923            0.0000000000
     34088      4115  TIP3      H1             -5.2576180331      -18.2452148032      -27.1813242290  TIP3      3923            0.0000000000
     34089      4115  TIP3      H2             -5.8919812204      -17.6127738096      -25.9695021355  TIP3      3923            0.0000000000
     34090      4116  TIP3      OH2            -0.7383071256      -35.7259882415      -27.7788155442  TIP3      3924            0.0000000000
     34091      4116  TIP3      H1             -1.5369114607      -35.3353638805      -28.1682712599  TIP3      3924            0.0000000000
     34092      4116  TIP3      H2             -0.5682708439      -36.4835356429      -28.3695440377  TIP3      3924            0.0000000000
     34093      4117  TIP3      OH2           -15.0145514481      -17.6616506485      -29.1373235516  TIP3      3925            0.0000000000
     34094      4117  TIP3      H1            -15.7578461738      -17.0583380973      -29.3487181974  TIP3      3925            0.0000000000
     34095      4117  TIP3      H2            -15.0673661836      -17.7291468258      -28.1709982781  TIP3      3925            0.0000000000
     34096      4118  TIP3      OH2           -12.5920126892      -18.2467938154      -30.0473086788  TIP3      3926            0.0000000000
     34097      4118  TIP3      H1            -13.5088194853      -18.0975701309      -29.7216375746  TIP3      3926            0.0000000000
     34098      4118  TIP3      H2            -12.5696545006      -17.6756595831      -30.8363339212  TIP3      3926            0.0000000000
     34099      4119  TIP3      OH2            -8.0547567013      -18.7146308063      -30.7032522166  TIP3      3927            0.0000000000
     34100      4119  TIP3      H1             -8.7767130391      -18.3843374172      -31.2547442627  TIP3      3927            0.0000000000
     34101      4119  TIP3      H2             -7.8489480760      -17.8950627564      -30.1971289573  TIP3      3927            0.0000000000
     34102      4120  TIP3      OH2            -5.9566254219      -19.9628671485      -29.4640922873  TIP3      3928            0.0000000000
     34103      4120  TIP3      H1             -6.6311931198      -19.5026505131      -30.0121150475  TIP3      3928            0.0000000000
     34104      4120  TIP3      H2             -5.1696719689      -19.4405202708      -29.7259870787  TIP3      3928            0.0000000000
     34105      4121  TIP3      OH2            -3.5615792859      -18.4068432108      -29.8496960575  TIP3      3929            0.0000000000
     34106      4121  TIP3      H1             -3.4021444224      -17.4932517769      -30.1709000483  TIP3      3929            0.0000000000
     34107      4121  TIP3      H2             -3.1151910737      -18.9136296434      -30.5706085394  TIP3      3929            0.0000000000
     34108      4122  TIP3      OH2           -15.4658032374      -19.4016329143      -32.1828162320  TIP3      3930            0.0000000000
     34109      4122  TIP3      H1            -15.7281532739      -19.9724247832      -31.4300475144  TIP3      3930            0.0000000000
     34110      4122  TIP3      H2            -14.5595084980      -19.7548827857      -32.3554739409  TIP3      3930            0.0000000000
     34111      4123  TIP3      OH2           -13.2437728385      -20.4802070532      -33.2901519955  TIP3      3931            0.0000000000
     34112      4123  TIP3      H1            -13.3293231732      -21.4251091260      -33.0738197819  TIP3      3931            0.0000000000
     34113      4123  TIP3      H2            -12.3676966292      -20.3060891975      -32.8831424754  TIP3      3931            0.0000000000
     34114      4124  TIP3      OH2           -10.9552991588      -20.5030299693      -31.9296487526  TIP3      3932            0.0000000000
     34115      4124  TIP3      H1            -10.6546589656      -21.4161794860      -32.1300711170  TIP3      3932            0.0000000000
     34116      4124  TIP3      H2            -10.6485393206      -20.3817748698      -31.0117491523  TIP3      3932            0.0000000000
     34117      4125  TIP3      OH2            -7.5623868441      -33.7397285311      -33.0583541094  TIP3      3933            0.0000000000
     34118      4125  TIP3      H1             -8.2177465064      -34.4079006751      -32.7876995128  TIP3      3933            0.0000000000
     34119      4125  TIP3      H2             -7.0032299008      -34.2814393272      -33.6492885376  TIP3      3933            0.0000000000
     34120      4126  TIP3      OH2            -2.1521347875      -36.2989165824      -33.5831222537  TIP3      3934            0.0000000000
     34121      4126  TIP3      H1             -1.5520124083      -35.7512034700      -34.1414932464  TIP3      3934            0.0000000000
     34122      4126  TIP3      H2             -2.9667329341      -35.7875151390      -33.5736789698  TIP3      3934            0.0000000000
     34123      4127  TIP3      OH2            -0.5693866450      -34.7445675671      -35.0975168174  TIP3      3935            0.0000000000
     34124      4127  TIP3      H1              0.1735967272      -35.3336878495      -34.8480653038  TIP3      3935            0.0000000000
     34125      4127  TIP3      H2             -0.0995091028      -33.8811196177      -35.0346097598  TIP3      3935            0.0000000000
     34126      4128  TIP3      OH2           -15.2683398191      -35.5030827945      -35.5017104820  TIP3      3936            0.0000000000
     34127      4128  TIP3      H1            -16.0772195259      -35.9484219257      -35.8058010597  TIP3      3936            0.0000000000
     34128      4128  TIP3      H2            -14.6783482587      -36.2628096362      -35.3060674337  TIP3      3936            0.0000000000
     34129      4129  TIP3      OH2           -16.9748102189      -35.4292386774      -40.4329206935  TIP3      3937            0.0000000000
     34130      4129  TIP3      H1            -16.1725924705      -34.9388159538      -40.7175485549  TIP3      3937            0.0000000000
     34131      4129  TIP3      H2            -17.0860692423      -35.2043760790      -39.4907691090  TIP3      3937            0.0000000000
     34132      4130  TIP3      OH2           -10.2788663829      -35.6804075878      -35.6670488110  TIP3      3938            0.0000000000
     34133      4130  TIP3      H1             -9.3524507588      -35.4779589510      -35.8905683461  TIP3      3938            0.0000000000
     34134      4130  TIP3      H2            -10.2009485729      -35.6249218646      -34.6914430523  TIP3      3938            0.0000000000
     34135      4131  TIP3      OH2            -5.6336214770      -35.5183700848      -34.4040561433  TIP3      3939            0.0000000000
     34136      4131  TIP3      H1             -6.1722487888      -35.4713389874      -35.2221680215  TIP3      3939            0.0000000000
     34137      4131  TIP3      H2             -5.3393167795      -36.4500074296      -34.4315250835  TIP3      3939            0.0000000000
     34138      4132  TIP3      OH2            -3.5329304132      -36.0490265795      -38.4320466974  TIP3      3940            0.0000000000
     34139      4132  TIP3      H1             -4.2155157846      -35.3715399337      -38.4140481054  TIP3      3940            0.0000000000
     34140      4132  TIP3      H2             -4.0212039772      -36.8808002950      -38.3456005684  TIP3      3940            0.0000000000
     34141      4133  TIP3      OH2           -16.3236437469      -19.9297632104      -39.0541017187  TIP3      3941            0.0000000000
     34142      4133  TIP3      H1            -17.2604456880      -19.9435015812      -39.3406106020  TIP3      3941            0.0000000000
     34143      4133  TIP3      H2            -16.1821535932      -18.9697547298      -39.1554113967  TIP3      3941            0.0000000000
     34144      4134  TIP3      OH2           -14.6613379340      -34.4413317210      -41.3815974476  TIP3      3942            0.0000000000
     34145      4134  TIP3      H1            -14.2510498191      -34.8140168068      -42.1775558960  TIP3      3942            0.0000000000
     34146      4134  TIP3      H2            -13.9033761670      -34.2362321531      -40.8187689223  TIP3      3942            0.0000000000
     34147      4135  TIP3      OH2            -9.6623946547      -33.9751157922      -38.9078725366  TIP3      3943            0.0000000000
     34148      4135  TIP3      H1             -8.9284503801      -34.1572724211      -38.3052072776  TIP3      3943            0.0000000000
     34149      4135  TIP3      H2             -9.6007082458      -33.0016030531      -38.9150801119  TIP3      3943            0.0000000000
     34150      4136  TIP3      OH2            -7.5230484324      -18.0384475278      -40.7386469655  TIP3      3944            0.0000000000
     34151      4136  TIP3      H1             -6.7972354401      -17.6410716964      -41.2553078794  TIP3      3944            0.0000000000
     34152      4136  TIP3      H2             -7.2447055125      -18.9797416182      -40.8050650059  TIP3      3944            0.0000000000
     34153      4137  TIP3      OH2            -1.0848619547      -19.7923028931      -37.3890935376  TIP3      3945            0.0000000000
     34154      4137  TIP3      H1             -1.1902118079      -20.5805969130      -37.9820399119  TIP3      3945            0.0000000000
     34155      4137  TIP3      H2             -1.1457630203      -19.0807468419      -38.0535608148  TIP3      3945            0.0000000000
     34156      4138  TIP3      OH2           -15.4440939031      -34.7341341484      -26.3324108412  TIP3      3946            0.0000000000
     34157      4138  TIP3      H1            -16.0666688343      -35.4636557017      -26.1995889456  TIP3      3946            0.0000000000
     34158      4138  TIP3      H2            -14.6361727636      -35.0822498243      -25.8979064159  TIP3      3946            0.0000000000
     34159      4139  TIP3      OH2           -13.5497981207      -35.5301171474      -24.3750501960  TIP3      3947            0.0000000000
     34160      4139  TIP3      H1            -12.7033637948      -35.3923638487      -23.9293666842  TIP3      3947            0.0000000000
     34161      4139  TIP3      H2            -13.7573839714      -36.4382107829      -24.1017108018  TIP3      3947            0.0000000000
     34162      4140  TIP3      OH2           -14.5164522221      -18.8252774069      -41.7247337016  TIP3      3948            0.0000000000
     34163      4140  TIP3      H1            -15.0846163210      -18.6954440319      -40.9506067994  TIP3      3948            0.0000000000
     34164      4140  TIP3      H2            -14.0835533026      -19.6670187886      -41.5466860454  TIP3      3948            0.0000000000
     34165      4141  TIP3      OH2            -4.9375261040      -35.9724794416      -23.3791192157  TIP3      3949            0.0000000000
     34166      4141  TIP3      H1             -5.7158662339      -36.5435632329      -23.3265976398  TIP3      3949            0.0000000000
     34167      4141  TIP3      H2             -4.2239697955      -36.6290372153      -23.1780575864  TIP3      3949            0.0000000000
     34168      4142  TIP3      OH2            -1.4893797830      -20.4404403363      -25.9004620650  TIP3      3950            0.0000000000
     34169      4142  TIP3      H1             -2.2032031105      -20.4325235252      -26.5750041634  TIP3      3950            0.0000000000
     34170      4142  TIP3      H2             -1.6846486973      -19.6271460450      -25.3953415578  TIP3      3950            0.0000000000
     34171      4143  TIP3      OH2            13.1668997846      -26.5239552460      -35.7981389593  TIP3      3951            0.0000000000
     34172      4143  TIP3      H1             13.0098439270      -25.5592592812      -35.6911974414  TIP3      3951            0.0000000000
     34173      4143  TIP3      H2             12.3937276011      -26.7457830300      -36.3405778345  TIP3      3951            0.0000000000
     34174      4144  TIP3      OH2            12.0359976448      -27.8881239402      -32.5449697272  TIP3      3952            0.0000000000
     34175      4144  TIP3      H1             12.1066081757      -28.2551448798      -31.6374985644  TIP3      3952            0.0000000000
     34176      4144  TIP3      H2             11.1721493406      -28.2348890887      -32.8260194603  TIP3      3952            0.0000000000
     34177      4145  TIP3      OH2             3.8006290744      -27.7939633650      -30.5245780137  TIP3      3953            0.0000000000
     34178      4145  TIP3      H1              3.8095351303      -28.5904313490      -29.9515281360  TIP3      3953            0.0000000000
     34179      4145  TIP3      H2              4.7559448783      -27.6713810012      -30.7085764906  TIP3      3953            0.0000000000
     34180      4146  TIP3      OH2            14.8984268591      -24.3468098655      -33.5743321373  TIP3      3954            0.0000000000
     34181      4146  TIP3      H1             14.8297731832      -25.1242800115      -32.9995839496  TIP3      3954            0.0000000000
     34182      4146  TIP3      H2             15.2181813910      -23.6653697420      -32.9540083506  TIP3      3954            0.0000000000
     34183      4147  TIP3      OH2             4.9716910204      -23.1675276061      -32.2979774979  TIP3      3955            0.0000000000
     34184      4147  TIP3      H1              4.5741416451      -24.0154730863      -32.5803880916  TIP3      3955            0.0000000000
     34185      4147  TIP3      H2              5.9022824988      -23.3459248535      -32.5274059813  TIP3      3955            0.0000000000
     34186      4148  TIP3      OH2             1.9045765458      -29.7491518798      -36.8886925493  TIP3      3956            0.0000000000
     34187      4148  TIP3      H1              1.3741385417      -29.2182765712      -36.2757142920  TIP3      3956            0.0000000000
     34188      4148  TIP3      H2              1.2661933403      -29.8611433853      -37.6232023359  TIP3      3956            0.0000000000
     34189      4149  TIP3      OH2             2.0181837466      -27.4120413562      -34.2954717921  TIP3      3957            0.0000000000
     34190      4149  TIP3      H1              2.3618584968      -28.3240163410      -34.2080393634  TIP3      3957            0.0000000000
     34191      4149  TIP3      H2              2.8077913911      -26.8794554503      -34.4951351780  TIP3      3957            0.0000000000
     34192      4150  TIP3      OH2            12.5870540923      -19.1068016603      -33.9822139394  TIP3      3958            0.0000000000
     34193      4150  TIP3      H1             13.1923043471      -19.6695335349      -34.5271616517  TIP3      3958            0.0000000000
     34194      4150  TIP3      H2             12.3253033741      -19.7548245283      -33.3170100124  TIP3      3958            0.0000000000
     34195      4151  TIP3      OH2             9.8218734006      -25.1599014779      -31.3039515906  TIP3      3959            0.0000000000
     34196      4151  TIP3      H1             10.1874138190      -25.2058991455      -32.1973206605  TIP3      3959            0.0000000000
     34197      4151  TIP3      H2             10.6120443429      -24.8590232190      -30.7968315967  TIP3      3959            0.0000000000
     34198      4152  TIP3      OH2            18.4790705909      -33.7068559990      -31.1609887100  TIP3      3960            0.0000000000
     34199      4152  TIP3      H1             18.5864258821      -33.0714305651      -30.4163707872  TIP3      3960            0.0000000000
     34200      4152  TIP3      H2             19.1965674704      -33.3805701512      -31.7340771254  TIP3      3960            0.0000000000
     34201      4153  TIP3      OH2            13.4449112736      -30.4725561486      -31.1732119005  TIP3      3961            0.0000000000
     34202      4153  TIP3      H1             13.8271311036      -31.3299739062      -30.9293846221  TIP3      3961            0.0000000000
     34203      4153  TIP3      H2             13.5066210631      -30.5200350423      -32.1481273016  TIP3      3961            0.0000000000
     34204      4154  TIP3      OH2             6.3396504856      -32.3128419988      -34.4013066056  TIP3      3962            0.0000000000
     34205      4154  TIP3      H1              6.6519462417      -31.6358192966      -35.0346262807  TIP3      3962            0.0000000000
     34206      4154  TIP3      H2              5.8762736738      -32.9064076741      -35.0343108974  TIP3      3962            0.0000000000
     34207      4155  TIP3      OH2            14.1310241411      -32.4539099654      -35.7790774038  TIP3      3963            0.0000000000
     34208      4155  TIP3      H1             14.6437824286      -32.5125868040      -34.9447281157  TIP3      3963            0.0000000000
     34209      4155  TIP3      H2             14.5699786066      -31.7041575449      -36.1981037139  TIP3      3963            0.0000000000
     34210      4156  TIP3      OH2             2.9298431864      -30.0265449066      -33.4019810767  TIP3      3964            0.0000000000
     34211      4156  TIP3      H1              3.6061841379      -30.4545421078      -32.8364375404  TIP3      3964            0.0000000000
     34212      4156  TIP3      H2              3.1023669194      -30.4925035608      -34.2480610652  TIP3      3964            0.0000000000
     34213      4157  TIP3      OH2             7.3860931025      -28.4848174729      -34.0183552680  TIP3      3965            0.0000000000
     34214      4157  TIP3      H1              8.2552379123      -28.8799417738      -33.8018397449  TIP3      3965            0.0000000000
     34215      4157  TIP3      H2              7.0797293713      -29.1065123505      -34.7076638272  TIP3      3965            0.0000000000
     34216      4158  TIP3      OH2            18.7150731086      -32.0569383056      -28.8290635150  TIP3      3966            0.0000000000
     34217      4158  TIP3      H1             18.2582039436      -31.2524727300      -29.1848497009  TIP3      3966            0.0000000000
     34218      4158  TIP3      H2             18.9365706914      -31.7636207438      -27.9394865657  TIP3      3966            0.0000000000
     34219      4159  TIP3      OH2             5.5755486257      -33.4074482686      -29.9514481507  TIP3      3967            0.0000000000
     34220      4159  TIP3      H1              5.0493214416      -33.0451210011      -30.6914754369  TIP3      3967            0.0000000000
     34221      4159  TIP3      H2              4.8817452464      -33.4116063856      -29.2490209970  TIP3      3967            0.0000000000
     34222      4160  TIP3      OH2            12.1578866874      -24.1753067469      -36.7758475019  TIP3      3968            0.0000000000
     34223      4160  TIP3      H1             12.0099465793      -24.1109219925      -37.7359917017  TIP3      3968            0.0000000000
     34224      4160  TIP3      H2             11.7620145847      -23.3198524880      -36.4778912902  TIP3      3968            0.0000000000
     34225      4161  TIP3      OH2             7.4960429838      -25.8426029451      -30.3198835846  TIP3      3969            0.0000000000
     34226      4161  TIP3      H1              6.9626819660      -25.0701054304      -30.0285559734  TIP3      3969            0.0000000000
     34227      4161  TIP3      H2              8.3053701017      -25.4061007183      -30.6758159963  TIP3      3969            0.0000000000
     34228      4162  TIP3      OH2            15.9124336827      -32.3001115071      -33.7170080959  TIP3      3970            0.0000000000
     34229      4162  TIP3      H1             16.1182487795      -33.1623569766      -33.3269298202  TIP3      3970            0.0000000000
     34230      4162  TIP3      H2             16.5396997878      -31.7527359810      -33.2037783119  TIP3      3970            0.0000000000
     34231      4163  TIP3      OH2             4.9332969107      -31.6779158925      -32.1855448883  TIP3      3971            0.0000000000
     34232      4163  TIP3      H1              5.6730186209      -31.2471310792      -31.7047548905  TIP3      3971            0.0000000000
     34233      4163  TIP3      H2              5.4188121371      -31.9816093382      -32.9891743366  TIP3      3971            0.0000000000
     34234      4164  TIP3      OH2             6.3246591746      -23.6237873565      -29.3430975068  TIP3      3972            0.0000000000
     34235      4164  TIP3      H1              5.9563835935      -23.0646019967      -30.0472293798  TIP3      3972            0.0000000000
     34236      4164  TIP3      H2              5.4926500325      -23.8095986274      -28.8266743380  TIP3      3972            0.0000000000
     34237      4165  TIP3      OH2             2.0818220039      -24.3682806973      -38.3806941205  TIP3      3973            0.0000000000
     34238      4165  TIP3      H1              2.0814593231      -23.9943273396      -39.2907359376  TIP3      3973            0.0000000000
     34239      4165  TIP3      H2              2.2462047294      -23.5649531926      -37.8351626213  TIP3      3973            0.0000000000
     34240      4166  TIP3      OH2            15.7886501434      -22.3790733764      -31.8990015555  TIP3      3974            0.0000000000
     34241      4166  TIP3      H1             14.8558618359      -22.1321249086      -31.7314318189  TIP3      3974            0.0000000000
     34242      4166  TIP3      H2             16.0882210834      -21.5411361673      -32.2928939551  TIP3      3974            0.0000000000
     34243      4167  TIP3      OH2            15.9904989121      -33.5544667546      -29.7947275142  TIP3      3975            0.0000000000
     34244      4167  TIP3      H1             15.3126321594      -33.4585754560      -30.4903964466  TIP3      3975            0.0000000000
     34245      4167  TIP3      H2             16.7927292680      -33.7331334313      -30.3149244636  TIP3      3975            0.0000000000
     34246      4168  TIP3      OH2             9.2353632349      -35.3718766270      -33.0050096798  TIP3      3976            0.0000000000
     34247      4168  TIP3      H1              9.4382757988      -36.1864615003      -32.5256653862  TIP3      3976            0.0000000000
     34248      4168  TIP3      H2              8.3711805330      -35.1178890948      -32.5888742391  TIP3      3976            0.0000000000
     34249      4169  TIP3      OH2            14.2833338145      -20.6139783751      -35.3274263697  TIP3      3977            0.0000000000
     34250      4169  TIP3      H1             14.5220474180      -21.4458635584      -35.7800480422  TIP3      3977            0.0000000000
     34251      4169  TIP3      H2             15.0982385090      -20.0703835713      -35.4900947891  TIP3      3977            0.0000000000
     34252      4170  TIP3      OH2            15.0621183877      -22.9070184150      -36.7118394770  TIP3      3978            0.0000000000
     34253      4170  TIP3      H1             15.0783410140      -23.6701689856      -37.3181671346  TIP3      3978            0.0000000000
     34254      4170  TIP3      H2             14.9928625734      -23.3639081269      -35.8605407306  TIP3      3978            0.0000000000
     34255      4171  TIP3      OH2            16.7267193140      -24.2596388433      -27.8571886629  TIP3      3979            0.0000000000
     34256      4171  TIP3      H1             16.9320078563      -25.0070775800      -28.4688838514  TIP3      3979            0.0000000000
     34257      4171  TIP3      H2             16.8739314566      -23.5136704208      -28.4708620893  TIP3      3979            0.0000000000
     34258      4172  TIP3      OH2            11.4585157975      -27.3237808534      -38.2442095905  TIP3      3980            0.0000000000
     34259      4172  TIP3      H1             10.9073021282      -26.5090627891      -38.3065698231  TIP3      3980            0.0000000000
     34260      4172  TIP3      H2             12.2922146303      -27.0704738425      -38.6823698888  TIP3      3980            0.0000000000
     34261      4173  TIP3      OH2            11.5330612045      -28.4279271131      -41.0294645762  TIP3      3981            0.0000000000
     34262      4173  TIP3      H1             12.2450050410      -28.1846362252      -40.3952903063  TIP3      3981            0.0000000000
     34263      4173  TIP3      H2             11.8240055245      -29.3049078517      -41.2982287343  TIP3      3981            0.0000000000
     34264      4174  TIP3      OH2            18.7583993931      -27.9077139404      -30.1300559049  TIP3      3982            0.0000000000
     34265      4174  TIP3      H1             18.1267974851      -27.1584458465      -30.0423983661  TIP3      3982            0.0000000000
     34266      4174  TIP3      H2             19.4377193422      -27.4748420875      -30.6893549404  TIP3      3982            0.0000000000
     34267      4175  TIP3      OH2            15.3328848023      -27.5657308378      -37.3529649109  TIP3      3983            0.0000000000
     34268      4175  TIP3      H1             14.6191836494      -27.2474477715      -36.7506139322  TIP3      3983            0.0000000000
     34269      4175  TIP3      H2             15.9530030143      -27.9874141669      -36.7135710383  TIP3      3983            0.0000000000
     34270      4176  TIP3      OH2            14.7700378305      -29.0740211234      -28.3159799569  TIP3      3984            0.0000000000
     34271      4176  TIP3      H1             14.6967630950      -28.2658610505      -27.7741527909  TIP3      3984            0.0000000000
     34272      4176  TIP3      H2             14.1393058406      -28.8410959259      -29.0235603939  TIP3      3984            0.0000000000
     34273      4177  TIP3      OH2             6.5490286996      -26.3446784902      -35.4279918579  TIP3      3985            0.0000000000
     34274      4177  TIP3      H1              6.3956003547      -26.8493731098      -36.2522926066  TIP3      3985            0.0000000000
     34275      4177  TIP3      H2              6.8558018633      -27.0526017675      -34.8280115020  TIP3      3985            0.0000000000
     34276      4178  TIP3      OH2             7.8257166317      -23.4436494690      -32.6909463593  TIP3      3986            0.0000000000
     34277      4178  TIP3      H1              8.1161073665      -23.5418571233      -33.6129185003  TIP3      3986            0.0000000000
     34278      4178  TIP3      H2              8.5102245242      -23.9051756646      -32.1795329740  TIP3      3986            0.0000000000
     34279      4179  TIP3      OH2             6.4742622993      -27.8540946822      -31.5794794356  TIP3      3987            0.0000000000
     34280      4179  TIP3      H1              6.7896200962      -27.8703590804      -32.5161598479  TIP3      3987            0.0000000000
     34281      4179  TIP3      H2              6.9902811261      -27.1086309345      -31.1809109058  TIP3      3987            0.0000000000
     34282      4180  TIP3      OH2            13.1670034841      -22.1542112030      -31.2020422463  TIP3      3988            0.0000000000
     34283      4180  TIP3      H1             12.7432557772      -21.5633518903      -30.5629529150  TIP3      3988            0.0000000000
     34284      4180  TIP3      H2             13.1196395185      -23.0192872206      -30.7445372859  TIP3      3988            0.0000000000
     34285      4181  TIP3      OH2             7.7734965945      -23.3255029457      -27.0162266619  TIP3      3989            0.0000000000
     34286      4181  TIP3      H1              7.1020918559      -22.7540069483      -26.5717192045  TIP3      3989            0.0000000000
     34287      4181  TIP3      H2              7.3911866187      -23.3516532553      -27.9238521984  TIP3      3989            0.0000000000
     34288      4182  TIP3      OH2            13.7684542706      -27.7575692640      -39.4938083289  TIP3      3990            0.0000000000
     34289      4182  TIP3      H1             14.4051192260      -27.6921251338      -38.7457238060  TIP3      3990            0.0000000000
     34290      4182  TIP3      H2             14.2488893852      -27.2511900786      -40.1903699570  TIP3      3990            0.0000000000
     34291      4183  TIP3      OH2             4.9342293494      -27.3357603396      -27.7975995774  TIP3      3991            0.0000000000
     34292      4183  TIP3      H1              5.2004975903      -26.6978640388      -27.1147841872  TIP3      3991            0.0000000000
     34293      4183  TIP3      H2              3.9919807402      -27.4677013718      -27.5899620479  TIP3      3991            0.0000000000
     34294      4184  TIP3      OH2            11.3850521151      -21.7393842722      -35.9106933482  TIP3      3992            0.0000000000
     34295      4184  TIP3      H1             11.7643506629      -21.2505232000      -35.1701077733  TIP3      3992            0.0000000000
     34296      4184  TIP3      H2             11.0269779019      -21.0415856176      -36.4621421646  TIP3      3992            0.0000000000
     34297      4185  TIP3      OH2             6.0314680001      -21.5747258817      -26.1651617307  TIP3      3993            0.0000000000
     34298      4185  TIP3      H1              5.8366708789      -21.1991036860      -27.0558024177  TIP3      3993            0.0000000000
     34299      4185  TIP3      H2              5.1329891207      -21.8385958850      -25.8712115534  TIP3      3993            0.0000000000
     34300      4186  TIP3      OH2            17.7720235765      -36.1109458113      -39.4704878056  TIP3      3994            0.0000000000
     34301      4186  TIP3      H1             16.8276583314      -36.2709966564      -39.2664797819  TIP3      3994            0.0000000000
     34302      4186  TIP3      H2             17.7825073079      -35.2223979755      -39.8515186317  TIP3      3994            0.0000000000
     34303      4187  TIP3      OH2             5.5029804023      -27.6149295093      -38.0422639737  TIP3      3995            0.0000000000
     34304      4187  TIP3      H1              4.9918191483      -26.9292924127      -38.5246913399  TIP3      3995            0.0000000000
     34305      4187  TIP3      H2              4.8660252936      -28.3269013170      -37.8999714975  TIP3      3995            0.0000000000
     34306      4188  TIP3      OH2            18.5038036310      -22.3560000828      -41.3629945562  TIP3      3996            0.0000000000
     34307      4188  TIP3      H1             18.7731112589      -21.4200865322      -41.3744283897  TIP3      3996            0.0000000000
     34308      4188  TIP3      H2             19.3697680447      -22.7691128725      -41.1791349609  TIP3      3996            0.0000000000
     34309      4189  TIP3      OH2             1.8897144950      -25.1620465027      -28.7128979880  TIP3      3997            0.0000000000
     34310      4189  TIP3      H1              1.4666783319      -25.1583551062      -29.5814215005  TIP3      3997            0.0000000000
     34311      4189  TIP3      H2              2.3696679771      -26.0051312315      -28.8012870399  TIP3      3997            0.0000000000
     34312      4190  TIP3      OH2             1.5309906285      -22.3627226784      -32.2628642114  TIP3      3998            0.0000000000
     34313      4190  TIP3      H1              2.4160348701      -22.2882476633      -31.8698323968  TIP3      3998            0.0000000000
     34314      4190  TIP3      H2              1.0959916263      -21.5717168303      -31.9132702150  TIP3      3998            0.0000000000
     34315      4191  TIP3      OH2            19.6663696361      -22.1527644480      -26.1505024690  TIP3      3999            0.0000000000
     34316      4191  TIP3      H1             19.4967219742      -23.1076987312      -25.9834806089  TIP3      3999            0.0000000000
     34317      4191  TIP3      H2             18.7684555660      -21.8109122768      -25.9296313182  TIP3      3999            0.0000000000
     34318      4192  TIP3      OH2            10.2229455493      -22.1210034117      -27.3552510437  TIP3      4000            0.0000000000
     34319      4192  TIP3      H1             10.6101930792      -21.5897656881      -26.6337544714  TIP3      4000            0.0000000000
     34320      4192  TIP3      H2              9.3459399769      -22.3884985719      -27.0209974499  TIP3      4000            0.0000000000
     34321      4193  TIP3      OH2            10.8841437236      -18.4372429644      -38.0380453121  TIP3      4001            0.0000000000
     34322      4193  TIP3      H1             10.9530357002      -18.1614118750      -38.9798619675  TIP3      4001            0.0000000000
     34323      4193  TIP3      H2             10.9648793625      -17.5660101700      -37.5986058588  TIP3      4001            0.0000000000
     34324      4194  TIP3      OH2             4.7256452561      -19.7892333756      -35.9004380813  TIP3      4002            0.0000000000
     34325      4194  TIP3      H1              4.9838571610      -20.0837743933      -34.9928056643  TIP3      4002            0.0000000000
     34326      4194  TIP3      H2              3.8480220384      -20.1950474657      -36.0099019026  TIP3      4002            0.0000000000
     34327      4195  TIP3      OH2            14.0577595312      -18.8330233052      -40.9233721760  TIP3      4003            0.0000000000
     34328      4195  TIP3      H1             14.5156223093      -19.5972379723      -41.3193447855  TIP3      4003            0.0000000000
     34329      4195  TIP3      H2             14.1159742431      -19.0310107417      -39.9650902459  TIP3      4003            0.0000000000
     34330      4196  TIP3      OH2            13.6915472796      -19.0513001678      -38.1580046098  TIP3      4004            0.0000000000
     34331      4196  TIP3      H1             12.7253471668      -18.9770361591      -38.0163604754  TIP3      4004            0.0000000000
     34332      4196  TIP3      H2             13.9052275073      -19.8479855912      -37.6417277674  TIP3      4004            0.0000000000
     34333      4197  TIP3      OH2            16.5114554275      -30.4071047665      -26.1083098615  TIP3      4005            0.0000000000
     34334      4197  TIP3      H1             15.9611748793      -29.7647656206      -26.5910292295  TIP3      4005            0.0000000000
     34335      4197  TIP3      H2             16.2411840481      -31.2572268267      -26.5075782189  TIP3      4005            0.0000000000
     34336      4198  TIP3      OH2             4.0566036616      -23.6615820773      -27.9844225751  TIP3      4006            0.0000000000
     34337      4198  TIP3      H1              4.1018254825      -23.9374612272      -27.0346024803  TIP3      4006            0.0000000000
     34338      4198  TIP3      H2              3.1996478014      -24.0697457774      -28.2276821223  TIP3      4006            0.0000000000
     34339      4199  TIP3      OH2             6.8280514524      -34.7241775111      -32.0062865393  TIP3      4007            0.0000000000
     34340      4199  TIP3      H1              6.0988178399      -34.8273033199      -32.6320654779  TIP3      4007            0.0000000000
     34341      4199  TIP3      H2              6.3986276762      -34.3244241361      -31.2279486477  TIP3      4007            0.0000000000
     34342      4200  TIP3      OH2            11.3532060546      -35.5841414011      -28.8193506371  TIP3      4008            0.0000000000
     34343      4200  TIP3      H1             11.6152393199      -36.0967277931      -28.0525358310  TIP3      4008            0.0000000000
     34344      4200  TIP3      H2             10.3898155413      -35.7340705389      -28.8262299240  TIP3      4008            0.0000000000
     34345      4201  TIP3      OH2            14.3897412407      -31.6784286326      -27.4678234073  TIP3      4009            0.0000000000
     34346      4201  TIP3      H1             13.5905870755      -31.6976598861      -26.9234542189  TIP3      4009            0.0000000000
     34347      4201  TIP3      H2             14.4148398918      -30.7684802546      -27.8324349077  TIP3      4009            0.0000000000
     34348      4202  TIP3      OH2            15.0702913929      -26.6052598920      -41.4856498992  TIP3      4010            0.0000000000
     34349      4202  TIP3      H1             15.0700939064      -26.4007769916      -42.4323678229  TIP3      4010            0.0000000000
     34350      4202  TIP3      H2             15.8815518787      -26.1446837140      -41.2087170334  TIP3      4010            0.0000000000
     34351      4203  TIP3      OH2            11.1230239336      -33.0250165299      -41.2793110444  TIP3      4011            0.0000000000
     34352      4203  TIP3      H1             10.6040708679      -33.3264684137      -40.5098743634  TIP3      4011            0.0000000000
     34353      4203  TIP3      H2             11.2145390034      -33.8585276341      -41.7649199049  TIP3      4011            0.0000000000
     34354      4204  TIP3      OH2             6.8807021021      -30.3555313620      -30.6996665232  TIP3      4012            0.0000000000
     34355      4204  TIP3      H1              6.1641376384      -30.1990289550      -30.0532894476  TIP3      4012            0.0000000000
     34356      4204  TIP3      H2              6.8437626351      -29.4993851930      -31.1762798145  TIP3      4012            0.0000000000
     34357      4205  TIP3      OH2             6.6363872923      -30.4172286195      -36.2562622294  TIP3      4013            0.0000000000
     34358      4205  TIP3      H1              5.6805892731      -30.6455664482      -36.2477650733  TIP3      4013            0.0000000000
     34359      4205  TIP3      H2              6.9427446871      -30.6485720667      -37.1626377281  TIP3      4013            0.0000000000
     34360      4206  TIP3      OH2            12.2558880320      -29.4914937557      -36.9545647856  TIP3      4014            0.0000000000
     34361      4206  TIP3      H1             11.9306439859      -28.7176283848      -37.4761082679  TIP3      4014            0.0000000000
     34362      4206  TIP3      H2             12.9752783329      -29.8048540906      -37.5376116192  TIP3      4014            0.0000000000
     34363      4207  TIP3      OH2            11.0991318166      -29.1294556378      -25.4168122261  TIP3      4015            0.0000000000
     34364      4207  TIP3      H1             10.5643965315      -29.9248177807      -25.1889291504  TIP3      4015            0.0000000000
     34365      4207  TIP3      H2             11.6651094500      -29.4993830925      -26.1084401325  TIP3      4015            0.0000000000
     34366      4208  TIP3      OH2            13.2956804467      -29.9370457088      -33.9678666940  TIP3      4016            0.0000000000
     34367      4208  TIP3      H1             12.9874517720      -29.0539431059      -34.2561729071  TIP3      4016            0.0000000000
     34368      4208  TIP3      H2             13.1262354102      -30.4661433365      -34.7585759291  TIP3      4016            0.0000000000
     34369      4209  TIP3      OH2             4.1759670712      -30.2347336314      -29.2560076489  TIP3      4017            0.0000000000
     34370      4209  TIP3      H1              4.4221687299      -29.9939568607      -28.3465469554  TIP3      4017            0.0000000000
     34371      4209  TIP3      H2              3.8187866085      -31.1315066396      -29.1461028001  TIP3      4017            0.0000000000
     34372      4210  TIP3      OH2             7.6529082121      -32.4928189708      -41.7555321893  TIP3      4018            0.0000000000
     34373      4210  TIP3      H1              7.1562870998      -32.8997493639      -41.0082178088  TIP3      4018            0.0000000000
     34374      4210  TIP3      H2              7.4544315689      -31.5545998791      -41.6249037472  TIP3      4018            0.0000000000
     34375      4211  TIP3      OH2             1.2766250166      -32.8307610305      -35.1204788228  TIP3      4019            0.0000000000
     34376      4211  TIP3      H1              1.9149241772      -32.8704221894      -34.3775476721  TIP3      4019            0.0000000000
     34377      4211  TIP3      H2              1.7497345154      -33.3276114847      -35.7956385707  TIP3      4019            0.0000000000
     34378      4212  TIP3      OH2             2.0584155358      -32.2839391015      -39.5992010545  TIP3      4020            0.0000000000
     34379      4212  TIP3      H1              2.6777022890      -31.8253247501      -40.1976961074  TIP3      4020            0.0000000000
     34380      4212  TIP3      H2              1.6055678519      -31.5365770758      -39.1710169007  TIP3      4020            0.0000000000
     34381      4213  TIP3      OH2            12.2374501099      -28.4778618161      -29.8959909381  TIP3      4021            0.0000000000
     34382      4213  TIP3      H1             12.7535482231      -29.2114025153      -30.3099046828  TIP3      4021            0.0000000000
     34383      4213  TIP3      H2             11.6127308309      -28.9859792157      -29.3362619499  TIP3      4021            0.0000000000
     34384      4214  TIP3      OH2             9.6071662708      -32.7824374106      -35.1868971498  TIP3      4022            0.0000000000
     34385      4214  TIP3      H1              8.7543569949      -32.9527764360      -34.7411164897  TIP3      4022            0.0000000000
     34386      4214  TIP3      H2             10.2136916822      -32.7578803578      -34.4140949269  TIP3      4022            0.0000000000
     34387      4215  TIP3      OH2             3.8349027431      -31.2411501233      -35.7604709923  TIP3      4023            0.0000000000
     34388      4215  TIP3      H1              3.1831621145      -30.7955352888      -36.3428546435  TIP3      4023            0.0000000000
     34389      4215  TIP3      H2              4.0022848571      -32.1017441725      -36.2049095707  TIP3      4023            0.0000000000
     34390      4216  TIP3      OH2             7.8032656107      -30.8951530006      -38.6698661558  TIP3      4024            0.0000000000
     34391      4216  TIP3      H1              8.7092924181      -30.6069244024      -38.4482842333  TIP3      4024            0.0000000000
     34392      4216  TIP3      H2              7.4482548179      -30.1952787902      -39.2607527553  TIP3      4024            0.0000000000
     34393      4217  TIP3      OH2            13.7310559854      -33.5540236226      -31.5736699689  TIP3      4025            0.0000000000
     34394      4217  TIP3      H1             12.9195941033      -33.2686864664      -31.1288180284  TIP3      4025            0.0000000000
     34395      4217  TIP3      H2             13.4129020563      -33.9197325801      -32.4158599235  TIP3      4025            0.0000000000
     34396      4218  TIP3      OH2             6.5594703521      -29.6281526615      -40.8512089287  TIP3      4026            0.0000000000
     34397      4218  TIP3      H1              6.0306565228      -29.9741752525      -41.5874035061  TIP3      4026            0.0000000000
     34398      4218  TIP3      H2              7.3572170284      -29.3048616011      -41.3208462986  TIP3      4026            0.0000000000
     34399      4219  TIP3      OH2            16.6567137521      -18.0318451213      -25.1386304910  TIP3      4027            0.0000000000
     34400      4219  TIP3      H1             17.0705491402      -17.6505762428      -25.9348489922  TIP3      4027            0.0000000000
     34401      4219  TIP3      H2             17.1390159573      -17.5350532959      -24.4581489411  TIP3      4027            0.0000000000
     34402      4220  TIP3      OH2             4.3750927627      -25.0791262875      -25.6805616971  TIP3      4028            0.0000000000
     34403      4220  TIP3      H1              4.8944015214      -24.7202280677      -24.9380349200  TIP3      4028            0.0000000000
     34404      4220  TIP3      H2              3.5956703657      -25.4509788204      -25.2081897055  TIP3      4028            0.0000000000
     34405      4221  TIP3      OH2            10.1074896007      -29.7988316404      -33.0327832695  TIP3      4029            0.0000000000
     34406      4221  TIP3      H1             10.9209964321      -30.1263363815      -33.4540126257  TIP3      4029            0.0000000000
     34407      4221  TIP3      H2              9.9572234840      -30.5145065890      -32.3783648597  TIP3      4029            0.0000000000
     34408      4222  TIP3      OH2             5.1454308014      -33.5982668934      -36.4243742846  TIP3      4030            0.0000000000
     34409      4222  TIP3      H1              4.5645556151      -34.2828336542      -36.0112128534  TIP3      4030            0.0000000000
     34410      4222  TIP3      H2              5.5242491947      -34.1287768598      -37.1360988915  TIP3      4030            0.0000000000
     34411      4223  TIP3      OH2             9.5776172765      -31.4065663462      -30.7611357107  TIP3      4031            0.0000000000
     34412      4223  TIP3      H1              8.7275644113      -30.9344261885      -30.7979304683  TIP3      4031            0.0000000000
     34413      4223  TIP3      H2              9.9787559567      -31.0269962244      -29.9687801517  TIP3      4031            0.0000000000
     34414      4224  TIP3      OH2             9.8054976686      -25.2425325737      -38.3647936303  TIP3      4032            0.0000000000
     34415      4224  TIP3      H1              9.0829672302      -25.7565158529      -38.7759668707  TIP3      4032            0.0000000000
     34416      4224  TIP3      H2              9.3832507976      -24.9540634325      -37.5172918800  TIP3      4032            0.0000000000
     34417      4225  TIP3      OH2            17.0435821847      -25.8231760459      -29.9675866212  TIP3      4033            0.0000000000
     34418      4225  TIP3      H1             17.5677289512      -25.1719812609      -30.4944847554  TIP3      4033            0.0000000000
     34419      4225  TIP3      H2             16.2507870711      -25.8809371347      -30.5303790333  TIP3      4033            0.0000000000
     34420      4226  TIP3      OH2            13.6042139255      -32.3452270114      -40.5437491160  TIP3      4034            0.0000000000
     34421      4226  TIP3      H1             12.6923795321      -32.3348392117      -40.8944643508  TIP3      4034            0.0000000000
     34422      4226  TIP3      H2             13.6802038101      -31.4626155904      -40.1538584899  TIP3      4034            0.0000000000
     34423      4227  TIP3      OH2            10.7423771062      -24.7832405252      -27.7153410186  TIP3      4035            0.0000000000
     34424      4227  TIP3      H1             10.5382036331      -24.8769560483      -26.7757771289  TIP3      4035            0.0000000000
     34425      4227  TIP3      H2             10.4398143680      -23.8727968044      -27.8751474503  TIP3      4035            0.0000000000
     34426      4228  TIP3      OH2            14.1309331051      -30.2937859338      -38.7456834651  TIP3      4036            0.0000000000
     34427      4228  TIP3      H1             14.9275619934      -30.5238981927      -38.2238292463  TIP3      4036            0.0000000000
     34428      4228  TIP3      H2             14.4355876515      -29.4960847639      -39.2069412658  TIP3      4036            0.0000000000
     34429      4229  TIP3      OH2             4.7820972170      -25.8536949932      -33.3056063646  TIP3      4037            0.0000000000
     34430      4229  TIP3      H1              5.3052970842      -25.8668191465      -34.1351002936  TIP3      4037            0.0000000000
     34431      4229  TIP3      H2              5.2444112373      -26.4779557198      -32.7306210683  TIP3      4037            0.0000000000
     34432      4230  TIP3      OH2            11.6520567304      -23.9238845171      -39.7439847872  TIP3      4038            0.0000000000
     34433      4230  TIP3      H1             11.2475930573      -23.0659088330      -39.4755305412  TIP3      4038            0.0000000000
     34434      4230  TIP3      H2             11.0347771046      -24.5539187435      -39.3045904953  TIP3      4038            0.0000000000
     34435      4231  TIP3      OH2             2.0394720398      -27.8782932022      -27.5391250329  TIP3      4039            0.0000000000
     34436      4231  TIP3      H1              1.7452090418      -28.1707486640      -26.6563069039  TIP3      4039            0.0000000000
     34437      4231  TIP3      H2              1.3608534702      -28.2650768463      -28.1110197699  TIP3      4039            0.0000000000
     34438      4232  TIP3      OH2             8.6789535371      -27.7628973721      -26.0060192255  TIP3      4040            0.0000000000
     34439      4232  TIP3      H1              8.4191121314      -27.9458440179      -26.9334475901  TIP3      4040            0.0000000000
     34440      4232  TIP3      H2              9.5550702203      -28.1995575191      -25.9802766714  TIP3      4040            0.0000000000
     34441      4233  TIP3      OH2            13.7269041130      -22.7305238464      -27.5125200729  TIP3      4041            0.0000000000
     34442      4233  TIP3      H1             12.9438015732      -22.6320219701      -28.0656701961  TIP3      4041            0.0000000000
     34443      4233  TIP3      H2             13.4253027239      -22.3032806891      -26.6869465001  TIP3      4041            0.0000000000
     34444      4234  TIP3      OH2            19.1415217643      -30.4035309716      -39.2809878599  TIP3      4042            0.0000000000
     34445      4234  TIP3      H1             18.5532593154      -30.5767124030      -40.0454845819  TIP3      4042            0.0000000000
     34446      4234  TIP3      H2             19.0389237378      -29.4298246628      -39.2190180075  TIP3      4042            0.0000000000
     34447      4235  TIP3      OH2            19.2093521217      -24.8392530023      -26.2846951920  TIP3      4043            0.0000000000
     34448      4235  TIP3      H1             18.3176605005      -24.6487981177      -26.6262590268  TIP3      4043            0.0000000000
     34449      4235  TIP3      H2             19.7264582549      -24.9740506058      -27.0968199449  TIP3      4043            0.0000000000
     34450      4236  TIP3      OH2            17.1245743427      -21.6025224870      -38.9502497072  TIP3      4044            0.0000000000
     34451      4236  TIP3      H1             17.0294442123      -22.4718159926      -38.5387189752  TIP3      4044            0.0000000000
     34452      4236  TIP3      H2             17.4216870463      -21.8008716613      -39.8543217393  TIP3      4044            0.0000000000
     34453      4237  TIP3      OH2            14.5630231781      -26.7314582619      -31.9149517775  TIP3      4045            0.0000000000
     34454      4237  TIP3      H1             13.6601867846      -26.9289938524      -32.2141004522  TIP3      4045            0.0000000000
     34455      4237  TIP3      H2             15.0630473553      -27.4043142478      -32.4195226540  TIP3      4045            0.0000000000
     34456      4238  TIP3      OH2             6.9854099043      -22.3192584604      -35.6267434084  TIP3      4046            0.0000000000
     34457      4238  TIP3      H1              7.1700214112      -21.4012432418      -35.9391937946  TIP3      4046            0.0000000000
     34458      4238  TIP3      H2              6.1245919626      -22.4677352522      -36.0383402955  TIP3      4046            0.0000000000
     34459      4239  TIP3      OH2             3.1054017180      -27.1892883632      -41.4940574974  TIP3      4047            0.0000000000
     34460      4239  TIP3      H1              3.5429315029      -26.7342091975      -40.7429931280  TIP3      4047            0.0000000000
     34461      4239  TIP3      H2              2.2161097187      -27.3299009928      -41.1301727411  TIP3      4047            0.0000000000
     34462      4240  TIP3      OH2             8.4700579434      -24.5560492822      -36.1061080888  TIP3      4048            0.0000000000
     34463      4240  TIP3      H1              7.9515292087      -23.7245809636      -36.0245452208  TIP3      4048            0.0000000000
     34464      4240  TIP3      H2              7.8860764430      -25.2212933317      -35.6846854664  TIP3      4048            0.0000000000
     34465      4241  TIP3      OH2             8.9725070243      -20.4481148529      -29.4192455915  TIP3      4049            0.0000000000
     34466      4241  TIP3      H1              9.6939479724      -19.8683483573      -29.7326383511  TIP3      4049            0.0000000000
     34467      4241  TIP3      H2              9.4246221674      -20.8974583106      -28.6794882024  TIP3      4049            0.0000000000
     34468      4242  TIP3      OH2             7.3008789493      -19.8580294257      -36.7310764840  TIP3      4050            0.0000000000
     34469      4242  TIP3      H1              6.3449027492      -19.8395019496      -36.5191479630  TIP3      4050            0.0000000000
     34470      4242  TIP3      H2              7.5613608143      -19.0051977994      -36.3207674593  TIP3      4050            0.0000000000
     34471      4243  TIP3      OH2            12.1917073801      -24.6550563283      -30.1806980510  TIP3      4051            0.0000000000
     34472      4243  TIP3      H1             11.8971624539      -24.8791218959      -29.2692259327  TIP3      4051            0.0000000000
     34473      4243  TIP3      H2             12.6130805914      -25.4870878716      -30.4658519295  TIP3      4051            0.0000000000
     34474      4244  TIP3      OH2            14.8634594519      -23.3781830400      -40.6197568898  TIP3      4052            0.0000000000
     34475      4244  TIP3      H1             15.1360562959      -23.8663496469      -39.8232273557  TIP3      4052            0.0000000000
     34476      4244  TIP3      H2             13.9438336212      -23.6834182076      -40.7045208844  TIP3      4052            0.0000000000
     34477      4245  TIP3      OH2            15.5915621967      -20.3062059653      -27.8182399871  TIP3      4053            0.0000000000
     34478      4245  TIP3      H1             14.6481075974      -20.5546681193      -27.8422225879  TIP3      4053            0.0000000000
     34479      4245  TIP3      H2             15.6471563261      -19.5361796004      -28.4353409445  TIP3      4053            0.0000000000
     34480      4246  TIP3      OH2            19.2302378361      -19.2618716911      -40.5902542742  TIP3      4054            0.0000000000
     34481      4246  TIP3      H1             19.7528142959      -18.7362657787      -41.2207005980  TIP3      4054            0.0000000000
     34482      4246  TIP3      H2             18.6551560310      -18.6057221062      -40.1497367540  TIP3      4054            0.0000000000
     34483      4247  TIP3      OH2             3.4300883339      -33.1214448041      -28.2917036813  TIP3      4055            0.0000000000
     34484      4247  TIP3      H1              2.5908888911      -32.6479200044      -28.2809475892  TIP3      4055            0.0000000000
     34485      4247  TIP3      H2              3.2879672500      -33.8241177625      -27.6093290529  TIP3      4055            0.0000000000
     34486      4248  TIP3      OH2            15.8028290872      -25.1208062223      -38.5016018161  TIP3      4056            0.0000000000
     34487      4248  TIP3      H1             15.5758685533      -25.9973083641      -38.1252829102  TIP3      4056            0.0000000000
     34488      4248  TIP3      H2             16.7823432604      -25.1861752129      -38.5211125871  TIP3      4056            0.0000000000
     34489      4249  TIP3      OH2             3.0994360069      -20.9844968136      -29.9497488272  TIP3      4057            0.0000000000
     34490      4249  TIP3      H1              3.7445922840      -21.7005793562      -29.9153907914  TIP3      4057            0.0000000000
     34491      4249  TIP3      H2              3.1917767440      -20.6094479310      -29.0594976261  TIP3      4057            0.0000000000
     34492      4250  TIP3      OH2             7.6939052484      -22.9988876471      -40.0050846404  TIP3      4058            0.0000000000
     34493      4250  TIP3      H1              8.3024376835      -23.4177999113      -39.3743568282  TIP3      4058            0.0000000000
     34494      4250  TIP3      H2              7.8298661994      -22.0414318111      -39.7858624066  TIP3      4058            0.0000000000
     34495      4251  TIP3      OH2             4.2346116051      -25.6802575114      -39.5946540931  TIP3      4059            0.0000000000
     34496      4251  TIP3      H1              3.6877764336      -25.2078118030      -38.9310973893  TIP3      4059            0.0000000000
     34497      4251  TIP3      H2              4.6810932262      -24.9466558869      -40.0611957578  TIP3      4059            0.0000000000
     34498      4252  TIP3      OH2            12.0481925000      -32.9764792118      -29.1793178591  TIP3      4060            0.0000000000
     34499      4252  TIP3      H1             12.9899006407      -33.0154498581      -28.9444010092  TIP3      4060            0.0000000000
     34500      4252  TIP3      H2             11.7786277009      -33.9225325670      -29.1614227738  TIP3      4060            0.0000000000
     34501      4253  TIP3      OH2            13.0893791086      -33.5981057811      -37.9170627971  TIP3      4061            0.0000000000
     34502      4253  TIP3      H1             13.2323190883      -32.8785858738      -38.5594699237  TIP3      4061            0.0000000000
     34503      4253  TIP3      H2             13.5190140639      -33.2281213756      -37.1104687253  TIP3      4061            0.0000000000
     34504      4254  TIP3      OH2            10.8859362574      -21.4873279776      -39.0921387418  TIP3      4062            0.0000000000
     34505      4254  TIP3      H1             10.2761920522      -20.7764488144      -38.8745470828  TIP3      4062            0.0000000000
     34506      4254  TIP3      H2             11.3437549125      -21.1361774681      -39.8934051191  TIP3      4062            0.0000000000
     34507      4255  TIP3      OH2            10.3444205126      -31.5692171006      -37.5208975722  TIP3      4063            0.0000000000
     34508      4255  TIP3      H1             10.8965311614      -30.8090884367      -37.2556147407  TIP3      4063            0.0000000000
     34509      4255  TIP3      H2              9.9789135274      -31.8867053808      -36.6677332149  TIP3      4063            0.0000000000
     34510      4256  TIP3      OH2            10.9820505372      -30.3573449079      -28.2446478173  TIP3      4064            0.0000000000
     34511      4256  TIP3      H1             10.3042372866      -30.5974694015      -27.5948619911  TIP3      4064            0.0000000000
     34512      4256  TIP3      H2             11.3843712638      -31.2366992562      -28.4324454428  TIP3      4064            0.0000000000
     34513      4257  TIP3      OH2            11.0287759327      -34.7596407066      -36.2873481731  TIP3      4065            0.0000000000
     34514      4257  TIP3      H1             10.6228078813      -33.9657436599      -35.8679995340  TIP3      4065            0.0000000000
     34515      4257  TIP3      H2             11.6760072771      -34.3331853890      -36.8871341905  TIP3      4065            0.0000000000
     34516      4258  TIP3      OH2             7.9703525529      -20.3936539725      -39.3912433374  TIP3      4066            0.0000000000
     34517      4258  TIP3      H1              8.2779314877      -19.5390943343      -39.7691029470  TIP3      4066            0.0000000000
     34518      4258  TIP3      H2              7.6427248318      -20.0785023547      -38.5201159508  TIP3      4066            0.0000000000
     34519      4259  TIP3      OH2             6.5976964482      -33.4565450627      -39.5206964434  TIP3      4067            0.0000000000
     34520      4259  TIP3      H1              6.5472567138      -32.6556980836      -38.9724423792  TIP3      4067            0.0000000000
     34521      4259  TIP3      H2              7.5001582028      -33.7569232599      -39.2897363341  TIP3      4067            0.0000000000
     34522      4260  TIP3      OH2            16.7424059929      -33.1276927455      -26.9565270517  TIP3      4068            0.0000000000
     34523      4260  TIP3      H1             15.8017115796      -32.9875336085      -27.1915219075  TIP3      4068            0.0000000000
     34524      4260  TIP3      H2             17.1421580488      -33.0119559094      -27.8400331544  TIP3      4068            0.0000000000
     34525      4261  TIP3      OH2            15.7331618643      -28.8607856896      -33.1962349955  TIP3      4069            0.0000000000
     34526      4261  TIP3      H1             14.9500863483      -29.4363161552      -33.2753364735  TIP3      4069            0.0000000000
     34527      4261  TIP3      H2             16.3971451026      -29.4480901500      -32.7741275828  TIP3      4069            0.0000000000
     34528      4262  TIP3      OH2             4.9906996300      -23.0881156130      -40.9373282013  TIP3      4070            0.0000000000
     34529      4262  TIP3      H1              5.7881399230      -22.8115182264      -40.4466167487  TIP3      4070            0.0000000000
     34530      4262  TIP3      H2              5.4485025658      -23.6203109215      -41.6102754554  TIP3      4070            0.0000000000
     34531      4263  TIP3      OH2             3.0564338052      -29.9392716388      -41.0800752055  TIP3      4071            0.0000000000
     34532      4263  TIP3      H1              3.3503222913      -29.0246361200      -41.2762574327  TIP3      4071            0.0000000000
     34533      4263  TIP3      H2              2.4035398614      -30.1094350345      -41.7710624329  TIP3      4071            0.0000000000
     34534      4264  TIP3      OH2            16.6339334453      -19.7923296726      -31.8550226946  TIP3      4072            0.0000000000
     34535      4264  TIP3      H1             16.6936243361      -19.0474072397      -32.4879705280  TIP3      4072            0.0000000000
     34536      4264  TIP3      H2             17.5818328693      -19.9195715940      -31.6744997847  TIP3      4072            0.0000000000
     34537      4265  TIP3      OH2             4.0724318582      -35.5814575384      -32.4476773247  TIP3      4073            0.0000000000
     34538      4265  TIP3      H1              3.9593824564      -35.7021648121      -33.4022581835  TIP3      4073            0.0000000000
     34539      4265  TIP3      H2              4.5197257536      -36.4090304187      -32.2160349580  TIP3      4073            0.0000000000
     34540      4266  TIP3      OH2             2.5707610625      -21.8743350749      -37.0760641965  TIP3      4074            0.0000000000
     34541      4266  TIP3      H1              1.8911262698      -21.3996493471      -36.5798540371  TIP3      4074            0.0000000000
     34542      4266  TIP3      H2              2.7381055906      -21.2033430515      -37.7762828142  TIP3      4074            0.0000000000
     34543      4267  TIP3      OH2             2.0709836586      -18.9133854130      -25.4760146285  TIP3      4075            0.0000000000
     34544      4267  TIP3      H1              2.7759993022      -19.0556756379      -24.8048739159  TIP3      4075            0.0000000000
     34545      4267  TIP3      H2              1.7334809399      -19.8218681578      -25.5745463203  TIP3      4075            0.0000000000
     34546      4268  TIP3      OH2             6.9593794283      -19.9033867923      -24.1159736237  TIP3      4076            0.0000000000
     34547      4268  TIP3      H1              7.8476610820      -20.2812485931      -24.0280959894  TIP3      4076            0.0000000000
     34548      4268  TIP3      H2              6.6336378535      -20.3663495849      -24.9161477472  TIP3      4076            0.0000000000
     34549      4269  TIP3      OH2            11.7273865582      -20.4664393851      -41.4767255051  TIP3      4077            0.0000000000
     34550      4269  TIP3      H1             11.0731281713      -20.9748379144      -42.0066730506  TIP3      4077            0.0000000000
     34551      4269  TIP3      H2             12.1916516736      -19.9921324700      -42.1818632511  TIP3      4077            0.0000000000
     34552      4270  TIP3      OH2            13.1444687582      -21.3103673804      -25.2595873620  TIP3      4078            0.0000000000
     34553      4270  TIP3      H1             12.9585516215      -22.1281826236      -24.7378670218  TIP3      4078            0.0000000000
     34554      4270  TIP3      H2             13.9801065936      -21.0310055413      -24.8255858314  TIP3      4078            0.0000000000
     34555      4271  TIP3      OH2            15.9288735866      -20.8045826196      -42.2652508202  TIP3      4079            0.0000000000
     34556      4271  TIP3      H1             15.6217312907      -21.4587702321      -41.6036116132  TIP3      4079            0.0000000000
     34557      4271  TIP3      H2             16.8789073487      -20.9711980760      -42.2407398753  TIP3      4079            0.0000000000
     34558      4272  TIP3      OH2             1.9875268663      -25.5472845666      -24.5924456615  TIP3      4080            0.0000000000
     34559      4272  TIP3      H1              1.8651581432      -26.5179452577      -24.6632951345  TIP3      4080            0.0000000000
     34560      4272  TIP3      H2              1.2755014433      -25.2006468390      -25.1625781360  TIP3      4080            0.0000000000
     34561      4273  TIP3      OH2             6.6545650889      -25.2604759210      -42.0847707039  TIP3      4081            0.0000000000
     34562      4273  TIP3      H1              7.2980339811      -25.2364196027      -41.3562486380  TIP3      4081            0.0000000000
     34563      4273  TIP3      H2              7.1720131328      -25.7989262130      -42.7212737546  TIP3      4081            0.0000000000
     34564      4274  TIP3      OH2             8.7709127657      -25.0921053512      -25.4113403053  TIP3      4082            0.0000000000
     34565      4274  TIP3      H1              8.3994599941      -24.5412908661      -26.1476613980  TIP3      4082            0.0000000000
     34566      4274  TIP3      H2              8.5428581048      -26.0066458532      -25.6933998892  TIP3      4082            0.0000000000
     34567      4275  TIP3      OH2            14.3797175973      -25.4597800390      -27.4733448699  TIP3      4083            0.0000000000
     34568      4275  TIP3      H1             15.2745492419      -25.0451177849      -27.4611402217  TIP3      4083            0.0000000000
     34569      4275  TIP3      H2             13.8718577209      -24.6238090658      -27.4184734526  TIP3      4083            0.0000000000
     34570      4276  TIP3      OH2             2.8288737480      -28.1450905118      -24.6126612931  TIP3      4084            0.0000000000
     34571      4276  TIP3      H1              3.5181021836      -28.8094887336      -24.7485470331  TIP3      4084            0.0000000000
     34572      4276  TIP3      H2              3.2062676381      -27.6597305424      -23.8382134958  TIP3      4084            0.0000000000
     34573      4277  TIP3      OH2             7.8467149977      -26.7205110102      -39.8555822882  TIP3      4085            0.0000000000
     34574      4277  TIP3      H1              7.1291248130      -27.1923668886      -39.3962933439  TIP3      4085            0.0000000000
     34575      4277  TIP3      H2              8.1314071712      -27.3865170066      -40.5069367770  TIP3      4085            0.0000000000
     34576      4278  TIP3      OH2             6.6846188056      -29.2081941419      -28.0726933968  TIP3      4086            0.0000000000
     34577      4278  TIP3      H1              6.1090678940      -28.4368285616      -27.8641150246  TIP3      4086            0.0000000000
     34578      4278  TIP3      H2              7.3650774362      -28.7645187232      -28.6021353706  TIP3      4086            0.0000000000
     34579      4279  TIP3      OH2             8.8857174280      -28.7468517013      -41.9031546954  TIP3      4087            0.0000000000
     34580      4279  TIP3      H1              9.2280285526      -28.7129141732      -42.8183595345  TIP3      4087            0.0000000000
     34581      4279  TIP3      H2              9.7301576169      -28.5770666524      -41.4036110829  TIP3      4087            0.0000000000
     34582      4280  TIP3      OH2            12.2089798845      -26.1214477555      -24.3778280078  TIP3      4088            0.0000000000
     34583      4280  TIP3      H1             12.7924178868      -26.6039943149      -24.9855677980  TIP3      4088            0.0000000000
     34584      4280  TIP3      H2             11.3394363419      -26.4533074243      -24.6485892697  TIP3      4088            0.0000000000
     34585      4281  TIP3      OH2            17.8462179498      -25.7497407553       42.3656906630  TIP3      4089            0.0000000000
     34586      4281  TIP3      H1             17.5079817029      -25.6652524796       41.4568292348  TIP3      4089            0.0000000000
     34587      4281  TIP3      H2             18.0214223264      -24.8326128671       42.6169672861  TIP3      4089            0.0000000000
     34588      4282  TIP3      OH2             7.3148200110      -31.4526327111      -26.7329991316  TIP3      4090            0.0000000000
     34589      4282  TIP3      H1              7.5946722782      -32.0835943759      -27.4330609292  TIP3      4090            0.0000000000
     34590      4282  TIP3      H2              7.0322332971      -30.6709154144      -27.2684776756  TIP3      4090            0.0000000000
     34591      4283  TIP3      OH2             8.1326658949      -32.9703006313      -28.9020788349  TIP3      4091            0.0000000000
     34592      4283  TIP3      H1              8.5930212977      -32.7744316822      -29.7433793731  TIP3      4091            0.0000000000
     34593      4283  TIP3      H2              7.2079697623      -32.9360358002      -29.2182824521  TIP3      4091            0.0000000000
     34594      4284  TIP3      OH2             8.8630534048      -27.5976830447      -28.7540447183  TIP3      4092            0.0000000000
     34595      4284  TIP3      H1              9.7718037352      -27.5021188598      -29.0637213939  TIP3      4092            0.0000000000
     34596      4284  TIP3      H2              8.3938054132      -26.8813192374      -29.2547453012  TIP3      4092            0.0000000000
     34597      4285  TIP3      OH2            15.0877441863      -27.5386642225      -25.8671395326  TIP3      4093            0.0000000000
     34598      4285  TIP3      H1             14.7749828421      -26.7703329436      -26.3913049586  TIP3      4093            0.0000000000
     34599      4285  TIP3      H2             16.0583136180      -27.3480487151      -25.8578159490  TIP3      4093            0.0000000000
     34600      4286  TIP3      OH2             5.1237289326      -30.5470117266      -25.1026343955  TIP3      4094            0.0000000000
     34601      4286  TIP3      H1              4.7428361471      -31.3573485001      -24.7115137663  TIP3      4094            0.0000000000
     34602      4286  TIP3      H2              5.9480090707      -30.8762244252      -25.4934996331  TIP3      4094            0.0000000000
     34603      4287  TIP3      OH2             8.5196365562      -35.7900488677      -28.7641962494  TIP3      4095            0.0000000000
     34604      4287  TIP3      H1              8.5894057375      -34.8056167298      -28.7698371015  TIP3      4095            0.0000000000
     34605      4287  TIP3      H2              7.5889574734      -35.8682523926      -28.9849916077  TIP3      4095            0.0000000000
     34606      4288  TIP3      OH2             9.5531860449      -31.2846729216      -25.3233489243  TIP3      4096            0.0000000000
     34607      4288  TIP3      H1              9.1547802984      -31.7862869107      -24.6035814953  TIP3      4096            0.0000000000
     34608      4288  TIP3      H2              8.7782178342      -31.2526749177      -25.9357720272  TIP3      4096            0.0000000000
     34609      4289  TIP3      OH2            12.4422355835      -32.1406233575      -25.4874447092  TIP3      4097            0.0000000000
     34610      4289  TIP3      H1             11.6744563034      -32.7195034485      -25.4029006124  TIP3      4097            0.0000000000
     34611      4289  TIP3      H2             13.1502362746      -32.7114872773      -25.1238223541  TIP3      4097            0.0000000000
     34612      4290  TIP3      OH2            14.1393119250      -34.1257070840      -23.9566894277  TIP3      4098            0.0000000000
     34613      4290  TIP3      H1             14.0152493007      -34.9514038476      -24.4453445623  TIP3      4098            0.0000000000
     34614      4290  TIP3      H2             14.0275544438      -34.4524112796      -23.0321789552  TIP3      4098            0.0000000000
     34615      4291  TIP3      OH2             3.8552529479      -33.0258077885      -24.2643788519  TIP3      4099            0.0000000000
     34616      4291  TIP3      H1              3.4458675102      -33.7831410236      -24.7206399959  TIP3      4099            0.0000000000
     34617      4291  TIP3      H2              3.8613225527      -33.3491337087      -23.3324696010  TIP3      4099            0.0000000000
     34618      4292  TIP3      OH2             8.5989106708       37.0337968753      -25.7002947575  TIP3      4100            0.0000000000
     34619      4292  TIP3      H1              9.3763570339       36.7010473116      -25.2263070564  TIP3      4100            0.0000000000
     34620      4292  TIP3      H2              8.7796125765       36.7515482962      -26.6089645122  TIP3      4100            0.0000000000
     34621      4293  TIP3      OH2             8.6041564851      -18.0946113456      -40.6355991382  TIP3      4101            0.0000000000
     34622      4293  TIP3      H1              9.3944947599      -17.5563373563      -40.4572374973  TIP3      4101            0.0000000000
     34623      4293  TIP3      H2              8.6933466734      -18.2345647453      -41.5935656410  TIP3      4101            0.0000000000
     34624      4294  TIP3      OH2             2.1075917761      -23.7125829567      -41.0907308437  TIP3      4102            0.0000000000
     34625      4294  TIP3      H1              3.0754438804      -23.5779117725      -41.0896691509  TIP3      4102            0.0000000000
     34626      4294  TIP3      H2              1.9581491343      -23.8598532382      -42.0392456369  TIP3      4102            0.0000000000
     34627      4295  TIP3      OH2             0.8817365536      -18.3321801502      -36.3757662625  TIP3      4103            0.0000000000
     34628      4295  TIP3      H1              0.1753875993      -18.9374675352      -36.6853872662  TIP3      4103            0.0000000000
     34629      4295  TIP3      H2              1.2555739341      -18.8721305673      -35.6499691472  TIP3      4103            0.0000000000
     34630      4296  TIP3      OH2             1.8261297357      -19.9044455444      -34.3651496129  TIP3      4104            0.0000000000
     34631      4296  TIP3      H1              1.1916502771      -20.5391094837      -33.9903158144  TIP3      4104            0.0000000000
     34632      4296  TIP3      H2              2.4180745916      -19.7193216442      -33.6043578871  TIP3      4104            0.0000000000
     34633      4297  TIP3      OH2            19.4527234831      -19.4169107434      -31.6057388713  TIP3      4105            0.0000000000
     34634      4297  TIP3      H1             19.7472995013      -19.2658759088      -30.6925712029  TIP3      4105            0.0000000000
     34635      4297  TIP3      H2             19.8389685010      -18.6650920284      -32.0825200324  TIP3      4105            0.0000000000
     34636      4298  TIP3      OH2            19.0193620903      -20.0960465614      -28.6644036347  TIP3      4106            0.0000000000
     34637      4298  TIP3      H1             18.4898026714      -20.7071383376      -29.2172901855  TIP3      4106            0.0000000000
     34638      4298  TIP3      H2             19.1304732941      -20.6513249915      -27.8798625729  TIP3      4106            0.0000000000
     34639      4299  TIP3      OH2            17.3236853313      -23.8148740586      -23.7034428970  TIP3      4107            0.0000000000
     34640      4299  TIP3      H1             16.5414598727      -23.8258972113      -23.1304406196  TIP3      4107            0.0000000000
     34641      4299  TIP3      H2             17.8061208714      -23.0353883074      -23.3882747864  TIP3      4107            0.0000000000
     34642      4300  TIP3      OH2            18.5124586353      -25.4951958768      -38.5185303889  TIP3      4108            0.0000000000
     34643      4300  TIP3      H1             19.3155226442      -24.9415730766      -38.3967918212  TIP3      4108            0.0000000000
     34644      4300  TIP3      H2             18.5865409736      -26.0779641826      -37.7297437906  TIP3      4108            0.0000000000
     34645      4301  TIP3      OH2            19.0028070204      -27.3669904289      -36.5357270728  TIP3      4109            0.0000000000
     34646      4301  TIP3      H1             18.2508881779      -27.8823776573      -36.1612978773  TIP3      4109            0.0000000000
     34647      4301  TIP3      H2             19.5850941262      -27.2583605586      -35.7460154099  TIP3      4109            0.0000000000
     34648      4302  TIP3      OH2            18.6155782968      -24.6229389022      -31.6313068534  TIP3      4110            0.0000000000
     34649      4302  TIP3      H1             19.2100571678      -25.3721003568      -31.8329431025  TIP3      4110            0.0000000000
     34650      4302  TIP3      H2             19.1334925538      -23.8805522999      -31.9978770230  TIP3      4110            0.0000000000
     34651      4303  TIP3      OH2            17.2399160137      -21.9630720259      -29.4379782125  TIP3      4111            0.0000000000
     34652      4303  TIP3      H1             16.4959989263      -21.5494991241      -28.9587377822  TIP3      4111            0.0000000000
     34653      4303  TIP3      H2             16.8232750817      -22.1963422146      -30.2927180631  TIP3      4111            0.0000000000
     34654      4304  TIP3      OH2            18.8733078502      -27.7665796282      -40.0256503972  TIP3      4112            0.0000000000
     34655      4304  TIP3      H1             18.2903235955      -27.6630058757      -40.7965898186  TIP3      4112            0.0000000000
     34656      4304  TIP3      H2             18.5041147891      -27.1023079454      -39.4048721016  TIP3      4112            0.0000000000
     34657      4305  TIP3      OH2            17.1526795037      -30.3683795765      -41.3901227200  TIP3      4113            0.0000000000
     34658      4305  TIP3      H1             17.7914108800      -29.8989992602      -41.9579396279  TIP3      4113            0.0000000000
     34659      4305  TIP3      H2             17.0808085825      -31.1986211778      -41.9080072264  TIP3      4113            0.0000000000
     34660      4306  TIP3      OH2            17.0373759426      -29.0154438806      -35.7549654118  TIP3      4114            0.0000000000
     34661      4306  TIP3      H1             16.8216168422      -29.9357493449      -35.9809051566  TIP3      4114            0.0000000000
     34662      4306  TIP3      H2             16.7241490235      -28.9398211535      -34.8331321164  TIP3      4114            0.0000000000
     34663      4307  TIP3      OH2             1.8306922808      -26.5585012324      -31.7387192565  TIP3      4115            0.0000000000
     34664      4307  TIP3      H1              1.8290503811      -26.9148663745      -32.6581094123  TIP3      4115            0.0000000000
     34665      4307  TIP3      H2              2.7210917221      -26.8763636386      -31.4409626836  TIP3      4115            0.0000000000
     34666      4308  TIP3      OH2            17.7152981324      -27.0130786207      -26.1431738986  TIP3      4116            0.0000000000
     34667      4308  TIP3      H1             18.3397606743      -27.7149792650      -25.8944971356  TIP3      4116            0.0000000000
     34668      4308  TIP3      H2             18.2503198289      -26.2159731124      -25.9371225623  TIP3      4116            0.0000000000
     34669      4309  TIP3      OH2            18.9682169428      -29.4466802554      -26.4439231306  TIP3      4117            0.0000000000
     34670      4309  TIP3      H1             18.0658036811      -29.8179399254      -26.3936467865  TIP3      4117            0.0000000000
     34671      4309  TIP3      H2             19.4921566172      -30.1092318405      -25.9436095318  TIP3      4117            0.0000000000
     34672      4310  TIP3      OH2            16.9124406407      -32.7717126691      -42.5915787859  TIP3      4118            0.0000000000
     34673      4310  TIP3      H1             17.2763696864      -33.1176872882      -41.7555041145  TIP3      4118            0.0000000000
     34674      4310  TIP3      H2             15.9566416798      -32.9282599545      -42.4872866686  TIP3      4118            0.0000000000
     34675      4311  TIP3      OH2            16.3442698685      -31.3025179481      -37.5482424540  TIP3      4119            0.0000000000
     34676      4311  TIP3      H1             16.5989123280      -32.1920043943      -37.2160611738  TIP3      4119            0.0000000000
     34677      4311  TIP3      H2             16.6137542549      -31.4513789752      -38.4642870746  TIP3      4119            0.0000000000
     34678      4312  TIP3      OH2            17.4209283987      -30.5814712712      -32.0356793863  TIP3      4120            0.0000000000
     34679      4312  TIP3      H1             18.3959548323      -30.5084569700      -31.8854553596  TIP3      4120            0.0000000000
     34680      4312  TIP3      H2             17.1400869328      -30.4599583643      -31.1043878782  TIP3      4120            0.0000000000
     34681      4313  TIP3      OH2            17.1533493732      -30.0207291538      -29.4113459197  TIP3      4121            0.0000000000
     34682      4313  TIP3      H1             16.2269699124      -29.7869255905      -29.1800442593  TIP3      4121            0.0000000000
     34683      4313  TIP3      H2             17.6015761604      -29.1415502273      -29.4218459745  TIP3      4121            0.0000000000
     34684      4314  TIP3      OH2             1.2764830879      -31.6908230417      -25.8764573738  TIP3      4122            0.0000000000
     34685      4314  TIP3      H1              2.1537196422      -31.7143008197      -25.4513657816  TIP3      4122            0.0000000000
     34686      4314  TIP3      H2              0.9331063066      -32.5989393019      -25.7121729602  TIP3      4122            0.0000000000
     34687      4315  TIP3      OH2            19.6849686848      -36.5248665344      -24.0688033124  TIP3      4123            0.0000000000
     34688      4315  TIP3      H1             19.6011223097      -37.0947834937      -24.8573081568  TIP3      4123            0.0000000000
     34689      4315  TIP3      H2             19.5806484654      -35.6161343519      -24.4132549224  TIP3      4123            0.0000000000
     34690      4316  TIP3      OH2            16.8705757098      -33.9077276932      -37.3172036197  TIP3      4124            0.0000000000
     34691      4316  TIP3      H1             17.3927113539      -34.2442590404      -36.5566141859  TIP3      4124            0.0000000000
     34692      4316  TIP3      H2             16.5061050201      -34.7319671818      -37.6951727098  TIP3      4124            0.0000000000
     34693      4317  TIP3      OH2             2.6529254021      -33.2318301446      -32.7664419761  TIP3      4125            0.0000000000
     34694      4317  TIP3      H1              3.0931385787      -34.0354799683      -32.4371416202  TIP3      4125            0.0000000000
     34695      4317  TIP3      H2              3.3832133023      -32.5865108760      -32.7359531695  TIP3      4125            0.0000000000
     34696      4318  TIP3      OH2             1.2283584711      -30.3858767673      -31.4371250133  TIP3      4126            0.0000000000
     34697      4318  TIP3      H1              1.7454406040      -30.4854501463      -32.2620272313  TIP3      4126            0.0000000000
     34698      4318  TIP3      H2              1.5116916395      -29.5078071415      -31.1572453586  TIP3      4126            0.0000000000
     34699      4319  TIP3      OH2            18.7510178744      -34.1921864971      -25.3790714632  TIP3      4127            0.0000000000
     34700      4319  TIP3      H1             18.1132502206      -33.5677248117      -25.7839837244  TIP3      4127            0.0000000000
     34701      4319  TIP3      H2             18.9458782097      -34.7244998797      -26.1721764915  TIP3      4127            0.0000000000
     34702      4320  TIP3      OH2            18.7649698469      -33.6864982365      -40.8519241544  TIP3      4128            0.0000000000
     34703      4320  TIP3      H1             19.3068347850      -34.5041140812      -40.8864263858  TIP3      4128            0.0000000000
     34704      4320  TIP3      H2             18.9212815116      -33.3181175660      -41.7382352449  TIP3      4128            0.0000000000
     34705      4321  TIP3      OH2             1.5041599336      -34.2658463437      -37.8750717577  TIP3      4129            0.0000000000
     34706      4321  TIP3      H1              0.5457480934      -34.1610856562      -37.8018854425  TIP3      4129            0.0000000000
     34707      4321  TIP3      H2              1.7234804973      -33.4982255451      -38.4460395664  TIP3      4129            0.0000000000
     34708      4322  TIP3      OH2            16.2327203171      -18.7844776471      -35.5413987874  TIP3      4130            0.0000000000
     34709      4322  TIP3      H1             17.0221972714      -18.9478890427      -36.0985823260  TIP3      4130            0.0000000000
     34710      4322  TIP3      H2             16.6129308513      -18.2560690693      -34.8139060120  TIP3      4130            0.0000000000
     34711      4323  TIP3      OH2             1.2018773503      -35.4200796148      -29.7470131176  TIP3      4131            0.0000000000
     34712      4323  TIP3      H1              0.7712391175      -35.1706871220      -28.9170338883  TIP3      4131            0.0000000000
     34713      4323  TIP3      H2              0.7998563515      -34.7585841632      -30.3419135728  TIP3      4131            0.0000000000
     34714      4324  TIP3      OH2             3.4922245885      -22.2147730194      -25.2523658440  TIP3      4132            0.0000000000
     34715      4324  TIP3      H1              2.7359797500      -21.8699112038      -25.7493446991  TIP3      4132            0.0000000000
     34716      4324  TIP3      H2              3.0408609543      -22.4557304295      -24.4198476338  TIP3      4132            0.0000000000
     34717      4325  TIP3      OH2             6.3711080358      -20.5294213565      -28.6326898887  TIP3      4133            0.0000000000
     34718      4325  TIP3      H1              6.3470645470      -19.6810091218      -29.1304694898  TIP3      4133            0.0000000000
     34719      4325  TIP3      H2              7.3156651172      -20.7492905358      -28.7461383976  TIP3      4133            0.0000000000
     34720      4326  TIP3      OH2            10.4416003837      -19.2944592596      -26.4084051182  TIP3      4134            0.0000000000
     34721      4326  TIP3      H1             10.5657126311      -19.6507548678      -25.5024539408  TIP3      4134            0.0000000000
     34722      4326  TIP3      H2             11.3628496630      -19.0241144748      -26.6288383305  TIP3      4134            0.0000000000
     34723      4327  TIP3      OH2            12.8357295921      -18.0598251923      -26.8231073691  TIP3      4135            0.0000000000
     34724      4327  TIP3      H1             13.5099502523      -18.3615638863      -27.4498600690  TIP3      4135            0.0000000000
     34725      4327  TIP3      H2             13.3412094663      -17.8339080730      -26.0195674812  TIP3      4135            0.0000000000
     34726      4328  TIP3      OH2            18.3982225023      -35.8517315348      -27.7879649622  TIP3      4136            0.0000000000
     34727      4328  TIP3      H1             17.4773538722      -35.5548292723      -27.8487951026  TIP3      4136            0.0000000000
     34728      4328  TIP3      H2             18.3445298624      -36.7417245054      -28.1908219165  TIP3      4136            0.0000000000
     34729      4329  TIP3      OH2             3.6607927731      -17.6695634128      -29.1053178887  TIP3      4137            0.0000000000
     34730      4329  TIP3      H1              2.9013826760      -17.0941787227      -29.3548480741  TIP3      4137            0.0000000000
     34731      4329  TIP3      H2              3.5771785527      -17.6443132080      -28.1366114781  TIP3      4137            0.0000000000
     34732      4330  TIP3      OH2             6.0215538153      -18.3173797291      -30.0613722243  TIP3      4138            0.0000000000
     34733      4330  TIP3      H1              5.1101426899      -18.1099280961      -29.7350796135  TIP3      4138            0.0000000000
     34734      4330  TIP3      H2              6.0094433626      -17.8178812765      -30.8907994324  TIP3      4138            0.0000000000
     34735      4331  TIP3      OH2            10.8418714321      -18.6313198366      -30.8070411098  TIP3      4139            0.0000000000
     34736      4331  TIP3      H1             10.1669519455      -18.2584094399      -31.4009374576  TIP3      4139            0.0000000000
     34737      4331  TIP3      H2             11.0003545592      -17.8628307468      -30.2197393176  TIP3      4139            0.0000000000
     34738      4332  TIP3      OH2            12.9927948188      -19.8676191102      -29.5220689034  TIP3      4140            0.0000000000
     34739      4332  TIP3      H1             12.3191079057      -19.3910045154      -30.0498766687  TIP3      4140            0.0000000000
     34740      4332  TIP3      H2             13.7641293315      -19.3204546244      -29.7429957207  TIP3      4140            0.0000000000
     34741      4333  TIP3      OH2            15.7840013467      -18.4382339206      -29.7208540101  TIP3      4141            0.0000000000
     34742      4333  TIP3      H1             15.9968759537      -17.5965933113      -30.1737216601  TIP3      4141            0.0000000000
     34743      4333  TIP3      H2             15.9864937886      -19.0658916469      -30.4495238382  TIP3      4141            0.0000000000
     34744      4334  TIP3      OH2             3.4208929648      -19.4011663166      -32.1770472911  TIP3      4142            0.0000000000
     34745      4334  TIP3      H1              3.1873902210      -19.9288833886      -31.3842099592  TIP3      4142            0.0000000000
     34746      4334  TIP3      H2              4.3002726080      -19.7793045960      -32.4117702612  TIP3      4142            0.0000000000
     34747      4335  TIP3      OH2             5.5322063916      -20.4884188814      -33.3937166456  TIP3      4143            0.0000000000
     34748      4335  TIP3      H1              5.4499897151      -21.4234967636      -33.1205067045  TIP3      4143            0.0000000000
     34749      4335  TIP3      H2              6.3549945915      -20.2454824015      -32.9069024664  TIP3      4143            0.0000000000
     34750      4336  TIP3      OH2             7.6965578956      -20.1660528694      -31.9632486442  TIP3      4144            0.0000000000
     34751      4336  TIP3      H1              8.1410304521      -21.0356563352      -31.9218398411  TIP3      4144            0.0000000000
     34752      4336  TIP3      H2              7.8669130560      -19.8100613659      -31.0706206636  TIP3      4144            0.0000000000
     34753      4337  TIP3      OH2            11.4298233537      -33.5214316804      -33.3355857623  TIP3      4145            0.0000000000
     34754      4337  TIP3      H1             10.8922737936      -34.2676188966      -33.0132984010  TIP3      4145            0.0000000000
     34755      4337  TIP3      H2             12.0418063873      -34.0110418260      -33.9161227790  TIP3      4145            0.0000000000
     34756      4338  TIP3      OH2            16.7900387610      -36.2056072575      -33.5791927257  TIP3      4146            0.0000000000
     34757      4338  TIP3      H1             17.3412518883      -35.6287879081      -34.1538217478  TIP3      4146            0.0000000000
     34758      4338  TIP3      H2             15.9233117134      -35.7961458090      -33.6164316944  TIP3      4146            0.0000000000
     34759      4339  TIP3      OH2            18.3485903253      -34.7620330080      -35.2052386042  TIP3      4147            0.0000000000
     34760      4339  TIP3      H1             18.9971678120      -35.3791064294      -34.8011794932  TIP3      4147            0.0000000000
     34761      4339  TIP3      H2             18.7975009266      -33.8976645380      -35.0799610305  TIP3      4147            0.0000000000
     34762      4340  TIP3      OH2             3.5916636012      -35.5252173334      -35.4635070844  TIP3      4148            0.0000000000
     34763      4340  TIP3      H1              2.7775188636      -35.9139977561      -35.0786716681  TIP3      4148            0.0000000000
     34764      4340  TIP3      H2              4.1815447221      -36.3049307102      -35.4142601379  TIP3      4148            0.0000000000
     34765      4341  TIP3      OH2             2.1167118706      -35.5542433518      -40.4829583599  TIP3      4149            0.0000000000
     34766      4341  TIP3      H1              2.6394473519      -34.8061094362      -40.8434625138  TIP3      4149            0.0000000000
     34767      4341  TIP3      H2              1.8730146894      -35.2419286743      -39.5980391420  TIP3      4149            0.0000000000
     34768      4342  TIP3      OH2             8.6014340478      -35.8253807368      -35.5602595591  TIP3      4150            0.0000000000
     34769      4342  TIP3      H1              9.4349722148      -35.4068354909      -35.8600085104  TIP3      4150            0.0000000000
     34770      4342  TIP3      H2              8.6572904452      -35.5901170663      -34.6167375237  TIP3      4150            0.0000000000
     34771      4343  TIP3      OH2            13.2276367689      -35.4537115354      -34.5177078656  TIP3      4151            0.0000000000
     34772      4343  TIP3      H1             12.8695247995      -35.4840556726      -35.4162091752  TIP3      4151            0.0000000000
     34773      4343  TIP3      H2             13.4818187855      -36.3824840299      -34.3492513057  TIP3      4151            0.0000000000
     34774      4344  TIP3      OH2            15.1208547017      -35.9935707912      -38.3795396926  TIP3      4152            0.0000000000
     34775      4344  TIP3      H1             14.4107965103      -35.3340524895      -38.4574504169  TIP3      4152            0.0000000000
     34776      4344  TIP3      H2             14.6448347410      -36.8328491917      -38.4468597134  TIP3      4152            0.0000000000
     34777      4345  TIP3      OH2             2.5269632392      -19.8732282142      -38.9253884317  TIP3      4153            0.0000000000
     34778      4345  TIP3      H1              1.6244972961      -19.8963694318      -39.2954070682  TIP3      4153            0.0000000000
     34779      4345  TIP3      H2              2.6697855757      -18.9210331577      -39.1396094992  TIP3      4153            0.0000000000
     34780      4346  TIP3      OH2             4.0224081193      -33.9576734667      -41.4595731874  TIP3      4154            0.0000000000
     34781      4346  TIP3      H1              4.5329447081      -34.7081876760      -41.7993580103  TIP3      4154            0.0000000000
     34782      4346  TIP3      H2              4.6036201192      -33.6320047121      -40.7569096687  TIP3      4154            0.0000000000
     34783      4347  TIP3      OH2             9.4514430021      -33.9547852039      -38.9735157000  TIP3      4155            0.0000000000
     34784      4347  TIP3      H1             10.0456792664      -34.2472388086      -38.2659325990  TIP3      4155            0.0000000000
     34785      4347  TIP3      H2              9.4893759122      -32.9910093661      -38.8105542457  TIP3      4155            0.0000000000
     34786      4348  TIP3      OH2            11.4156040320      -17.9306521327      -40.5951379509  TIP3      4156            0.0000000000
     34787      4348  TIP3      H1             12.1767886760      -17.6788379082      -41.1518888195  TIP3      4156            0.0000000000
     34788      4348  TIP3      H2             11.5117999164      -18.9060056693      -40.6794780628  TIP3      4156            0.0000000000
     34789      4349  TIP3      OH2            17.9457217141      -19.6263834160      -37.4103912141  TIP3      4157            0.0000000000
     34790      4349  TIP3      H1             17.6608480771      -20.3788168154      -37.9897018183  TIP3      4157            0.0000000000
     34791      4349  TIP3      H2             17.8280618433      -18.8954615372      -38.0543984342  TIP3      4157            0.0000000000
     34792      4350  TIP3      OH2             3.0616443582      -34.9896596198      -26.3376084639  TIP3      4158            0.0000000000
     34793      4350  TIP3      H1              2.4702380151      -35.7522699662      -26.3098795855  TIP3      4158            0.0000000000
     34794      4350  TIP3      H2              3.8905399191      -35.3768320460      -25.9964716868  TIP3      4158            0.0000000000
     34795      4351  TIP3      OH2             5.5973188806      -35.7036410398      -24.7962329381  TIP3      4159            0.0000000000
     34796      4351  TIP3      H1              6.5434064240      -35.5132257616      -24.9218267229  TIP3      4159            0.0000000000
     34797      4351  TIP3      H2              5.5103849956      -35.6846200977      -23.8260113450  TIP3      4159            0.0000000000
     34798      4352  TIP3      OH2             4.6422231057      -18.8629065854      -41.8262570134  TIP3      4160            0.0000000000
     34799      4352  TIP3      H1              3.9764425999      -18.7045050911      -41.1425406879  TIP3      4160            0.0000000000
     34800      4352  TIP3      H2              4.9102752907      -19.7681062951      -41.6439014980  TIP3      4160            0.0000000000
     34801      4353  TIP3      OH2            17.5396550476      -20.5913802222      -25.9484051834  TIP3      4161            0.0000000000
     34802      4353  TIP3      H1             16.7747502480      -20.7611919648      -26.5308305095  TIP3      4161            0.0000000000
     34803      4353  TIP3      H2             17.2735568510      -19.7174679543      -25.5928248150  TIP3      4161            0.0000000000
     34804      4354  TIP3      OH2            31.8034476347      -26.6598460086      -35.7738846007  TIP3      4162            0.0000000000
     34805      4354  TIP3      H1             31.4799636570      -25.7423840177      -35.8765056411  TIP3      4162            0.0000000000
     34806      4354  TIP3      H2             31.0742809250      -27.1548861932      -36.1735392914  TIP3      4162            0.0000000000
     34807      4355  TIP3      OH2            30.6200828733      -27.8244189944      -32.5608721891  TIP3      4163            0.0000000000
     34808      4355  TIP3      H1             30.6053407105      -28.1544043630      -31.6403468763  TIP3      4163            0.0000000000
     34809      4355  TIP3      H2             29.8191387301      -28.2514626986      -32.9357539666  TIP3      4163            0.0000000000
     34810      4356  TIP3      OH2            22.6795278214      -27.7363793142      -30.7203179360  TIP3      4164            0.0000000000
     34811      4356  TIP3      H1             22.5760818196      -28.5591915811      -30.1923026235  TIP3      4164            0.0000000000
     34812      4356  TIP3      H2             23.5973582724      -27.4839091399      -30.5187752294  TIP3      4164            0.0000000000
     34813      4357  TIP3      OH2            34.3132521490      -24.4723202895      -33.4133900527  TIP3      4165            0.0000000000
     34814      4357  TIP3      H1             34.0163995915      -25.2832880726      -32.9739621432  TIP3      4165            0.0000000000
     34815      4357  TIP3      H2             34.2498185141      -23.8229767282      -32.6966858333  TIP3      4165            0.0000000000
     34816      4358  TIP3      OH2            23.9137664833      -23.1117190383      -33.2508846336  TIP3      4166            0.0000000000
     34817      4358  TIP3      H1             23.5346257688      -24.0092053658      -33.2155088332  TIP3      4166            0.0000000000
     34818      4358  TIP3      H2             24.8538928060      -23.3154030934      -33.0843833265  TIP3      4166            0.0000000000
     34819      4359  TIP3      OH2            20.5870723999      -29.9008983188      -36.5635911140  TIP3      4167            0.0000000000
     34820      4359  TIP3      H1             20.0657933285      -29.0913710976      -36.4136833197  TIP3      4167            0.0000000000
     34821      4359  TIP3      H2             19.8697070968      -30.5496314247      -36.5984723562  TIP3      4167            0.0000000000
     34822      4360  TIP3      OH2            20.8555939140      -27.4281100347      -34.3696116614  TIP3      4168            0.0000000000
     34823      4360  TIP3      H1             21.3072755709      -28.2332870139      -34.0372552168  TIP3      4168            0.0000000000
     34824      4360  TIP3      H2             21.5717266436      -26.7722432286      -34.3325436069  TIP3      4168            0.0000000000
     34825      4361  TIP3      OH2            31.6247124429      -19.1296585688      -33.9156503700  TIP3      4169            0.0000000000
     34826      4361  TIP3      H1             32.1840919373      -19.7901948858      -34.3965887989  TIP3      4169            0.0000000000
     34827      4361  TIP3      H2             31.2786957437      -19.7351628454      -33.2387067492  TIP3      4169            0.0000000000
     34828      4362  TIP3      OH2            28.6739271439      -25.2686343876      -31.3559594578  TIP3      4170            0.0000000000
     34829      4362  TIP3      H1             29.0378867945      -25.2792963623      -32.2481305717  TIP3      4170            0.0000000000
     34830      4362  TIP3      H2             29.4517407024      -24.9337282932      -30.8562373567  TIP3      4170            0.0000000000
     34831      4363  TIP3      OH2            32.3741485252      -30.5558498115      -31.1502588227  TIP3      4171            0.0000000000
     34832      4363  TIP3      H1             32.1870547077      -31.5156838906      -31.1316849913  TIP3      4171            0.0000000000
     34833      4363  TIP3      H2             32.4052862245      -30.4278900828      -32.1081167042  TIP3      4171            0.0000000000
     34834      4364  TIP3      OH2            24.8885515798      -32.3010847830      -34.4326169429  TIP3      4172            0.0000000000
     34835      4364  TIP3      H1             25.4677630405      -31.7493055947      -34.9928865230  TIP3      4172            0.0000000000
     34836      4364  TIP3      H2             24.6454785901      -32.9864408160      -35.0912116008  TIP3      4172            0.0000000000
     34837      4365  TIP3      OH2            32.8120426582      -32.3677151927      -35.7908148442  TIP3      4173            0.0000000000
     34838      4365  TIP3      H1             33.4055949081      -32.5648628783      -35.0266864727  TIP3      4173            0.0000000000
     34839      4365  TIP3      H2             33.2673538956      -31.6269067998      -36.2211480313  TIP3      4173            0.0000000000
     34840      4366  TIP3      OH2            21.7110178839      -29.9729024086      -33.3711664953  TIP3      4174            0.0000000000
     34841      4366  TIP3      H1             22.3847848119      -30.3719732458      -32.7883880506  TIP3      4174            0.0000000000
     34842      4366  TIP3      H2             21.8691306062      -30.4462218916      -34.1922322351  TIP3      4174            0.0000000000
     34843      4367  TIP3      OH2            26.5369118343      -28.4187655849      -34.1481600937  TIP3      4175            0.0000000000
     34844      4367  TIP3      H1             27.3522092346      -28.8411912468      -33.8013964365  TIP3      4175            0.0000000000
     34845      4367  TIP3      H2             26.2903078571      -29.0958103037      -34.8045950005  TIP3      4175            0.0000000000
     34846      4368  TIP3      OH2            24.2988359226      -33.4683274092      -30.0109406558  TIP3      4176            0.0000000000
     34847      4368  TIP3      H1             23.7207078658      -33.1575423881      -30.7308801731  TIP3      4176            0.0000000000
     34848      4368  TIP3      H2             23.6885108529      -33.3492580664      -29.2501902125  TIP3      4176            0.0000000000
     34849      4369  TIP3      OH2            31.0204719145      -24.2816725186      -36.8881825127  TIP3      4177            0.0000000000
     34850      4369  TIP3      H1             30.8670461345      -24.1610900530      -37.8426702575  TIP3      4177            0.0000000000
     34851      4369  TIP3      H2             30.7610976376      -23.3911625434      -36.5466189368  TIP3      4177            0.0000000000
     34852      4370  TIP3      OH2            26.2490927757      -25.8631805998      -30.1741582572  TIP3      4178            0.0000000000
     34853      4370  TIP3      H1             25.8020324187      -25.0871711851      -29.7961110217  TIP3      4178            0.0000000000
     34854      4370  TIP3      H2             27.0586137346      -25.4911392887      -30.5786757111  TIP3      4178            0.0000000000
     34855      4371  TIP3      OH2            34.5009822976      -32.6149826483      -33.6604057137  TIP3      4179            0.0000000000
     34856      4371  TIP3      H1             34.4737576309      -33.5594822713      -33.4650079461  TIP3      4179            0.0000000000
     34857      4371  TIP3      H2             34.7086153925      -32.2240456111      -32.7823592305  TIP3      4179            0.0000000000
     34858      4372  TIP3      OH2            23.7047191398      -31.7329634849      -32.1576422381  TIP3      4180            0.0000000000
     34859      4372  TIP3      H1             24.4769800714      -31.2712101328      -31.7520614655  TIP3      4180            0.0000000000
     34860      4372  TIP3      H2             24.1212048924      -32.0339822082      -33.0032219672  TIP3      4180            0.0000000000
     34861      4373  TIP3      OH2            21.0256758337      -24.4294994849      -38.3205860098  TIP3      4181            0.0000000000
     34862      4373  TIP3      H1             21.0027623421      -23.8967748965      -39.1341808170  TIP3      4181            0.0000000000
     34863      4373  TIP3      H2             21.1561869914      -23.7301779572      -37.6418929986  TIP3      4181            0.0000000000
     34864      4374  TIP3      OH2            34.4833097522      -22.5707472030      -31.2941256255  TIP3      4182            0.0000000000
     34865      4374  TIP3      H1             33.5104766518      -22.5094706489      -31.2881338816  TIP3      4182            0.0000000000
     34866      4374  TIP3      H2             34.7128482322      -21.6990420358      -31.6627472687  TIP3      4182            0.0000000000
     34867      4375  TIP3      OH2            34.9689158699      -33.7263107494      -30.3771666883  TIP3      4183            0.0000000000
     34868      4375  TIP3      H1             34.0858851146      -33.6424476341      -30.7616507061  TIP3      4183            0.0000000000
     34869      4375  TIP3      H2             35.3648836418      -32.8859317347      -30.6845295782  TIP3      4183            0.0000000000
     34870      4376  TIP3      OH2            28.1694948415      -35.4700024196      -32.8217401581  TIP3      4184            0.0000000000
     34871      4376  TIP3      H1             28.1061164569      -36.3156957393      -32.3628759872  TIP3      4184            0.0000000000
     34872      4376  TIP3      H2             27.3464222791      -35.0424499314      -32.4806284333  TIP3      4184            0.0000000000
     34873      4377  TIP3      OH2            33.0106603547      -20.9729109838      -35.2256570948  TIP3      4185            0.0000000000
     34874      4377  TIP3      H1             33.2095003239      -21.8573854809      -35.6054202541  TIP3      4185            0.0000000000
     34875      4377  TIP3      H2             33.7567664580      -20.4721721371      -35.6042431301  TIP3      4185            0.0000000000
     34876      4378  TIP3      OH2            33.9925282724      -23.1066857324      -36.5938978205  TIP3      4186            0.0000000000
     34877      4378  TIP3      H1             33.8081378682      -23.7711558839      -37.2807254366  TIP3      4186            0.0000000000
     34878      4378  TIP3      H2             34.2645369487      -23.6560997986      -35.8275313663  TIP3      4186            0.0000000000
     34879      4379  TIP3      OH2            35.5614796749      -24.2314867934      -27.6194905349  TIP3      4187            0.0000000000
     34880      4379  TIP3      H1             35.5999515645      -24.9477359313      -28.2931426958  TIP3      4187            0.0000000000
     34881      4379  TIP3      H2             35.6552694358      -23.4461472578      -28.1884750081  TIP3      4187            0.0000000000
     34882      4380  TIP3      OH2            30.2045176910      -27.3366272138      -38.5251542207  TIP3      4188            0.0000000000
     34883      4380  TIP3      H1             29.7818227927      -26.4504806924      -38.6126267494  TIP3      4188            0.0000000000
     34884      4380  TIP3      H2             31.0760368203      -27.1865440111      -38.9221046891  TIP3      4188            0.0000000000
     34885      4381  TIP3      OH2            30.8513610259      -28.4544766457      -41.3386487349  TIP3      4189            0.0000000000
     34886      4381  TIP3      H1             31.5382302285      -28.1647279803      -40.7009908609  TIP3      4189            0.0000000000
     34887      4381  TIP3      H2             31.3232089399      -29.1813772200      -41.7653701467  TIP3      4189            0.0000000000
     34888      4382  TIP3      OH2            34.1109965617      -26.7464167705      -37.2117086401  TIP3      4190            0.0000000000
     34889      4382  TIP3      H1             33.2857537271      -26.5454926877      -36.7083876723  TIP3      4190            0.0000000000
     34890      4382  TIP3      H2             34.4466014502      -27.5018856473      -36.6778824454  TIP3      4190            0.0000000000
     34891      4383  TIP3      OH2            33.4756084632      -29.0682193065      -28.4388528449  TIP3      4191            0.0000000000
     34892      4383  TIP3      H1             33.6671726203      -28.2620395934      -27.9429351427  TIP3      4191            0.0000000000
     34893      4383  TIP3      H2             32.7760423600      -28.7293976540      -29.0351845808  TIP3      4191            0.0000000000
     34894      4384  TIP3      OH2            25.1818617599      -26.3789160638      -35.3869414961  TIP3      4192            0.0000000000
     34895      4384  TIP3      H1             24.9824000687      -26.8185792394      -36.2438430535  TIP3      4192            0.0000000000
     34896      4384  TIP3      H2             25.7055068783      -27.0760241156      -34.9370894277  TIP3      4192            0.0000000000
     34897      4385  TIP3      OH2            26.8395308404      -23.2659130879      -32.6792152872  TIP3      4193            0.0000000000
     34898      4385  TIP3      H1             27.2183183897      -23.4607018914      -33.5476923887  TIP3      4193            0.0000000000
     34899      4385  TIP3      H2             27.3362480296      -23.8316189170      -32.0570846958  TIP3      4193            0.0000000000
     34900      4386  TIP3      OH2            25.5729177654      -28.0368975831      -31.6516756848  TIP3      4194            0.0000000000
     34901      4386  TIP3      H1             25.9462124758      -27.9899163134      -32.5626722104  TIP3      4194            0.0000000000
     34902      4386  TIP3      H2             25.9655889339      -27.2529416198      -31.1878157787  TIP3      4194            0.0000000000
     34903      4387  TIP3      OH2            31.8761797290      -22.0422654222      -31.2693469044  TIP3      4195            0.0000000000
     34904      4387  TIP3      H1             31.7286623139      -21.4194304106      -30.5377557418  TIP3      4195            0.0000000000
     34905      4387  TIP3      H2             31.6258761465      -22.8942014328      -30.8589632573  TIP3      4195            0.0000000000
     34906      4388  TIP3      OH2            32.7962949439      -27.6861086643      -39.5166277014  TIP3      4196            0.0000000000
     34907      4388  TIP3      H1             33.2773669447      -27.3069059298      -38.7510167850  TIP3      4196            0.0000000000
     34908      4388  TIP3      H2             33.1941893014      -27.1713931401      -40.2547163446  TIP3      4196            0.0000000000
     34909      4389  TIP3      OH2            24.1513052799      -27.8347017422      -27.9521504725  TIP3      4197            0.0000000000
     34910      4389  TIP3      H1             24.5926998301      -27.0166195981      -27.6403621910  TIP3      4197            0.0000000000
     34911      4389  TIP3      H2             23.2313256172      -27.6370234213      -27.7084938589  TIP3      4197            0.0000000000
     34912      4390  TIP3      OH2            30.3266565385      -21.8363166388      -36.0136296803  TIP3      4198            0.0000000000
     34913      4390  TIP3      H1             30.7015013815      -21.1978302774      -35.3986460444  TIP3      4198            0.0000000000
     34914      4390  TIP3      H2             29.7828477215      -21.2890081741      -36.5962569164  TIP3      4198            0.0000000000
     34915      4391  TIP3      OH2            35.8771574782      -36.2243395937      -40.2541890893  TIP3      4199            0.0000000000
     34916      4391  TIP3      H1             35.8679719688      -36.8535041525      -39.5020579715  TIP3      4199            0.0000000000
     34917      4391  TIP3      H2             36.8366346776      -36.0634348311      -40.3526463693  TIP3      4199            0.0000000000
     34918      4392  TIP3      OH2            24.1298650859      -27.4314794618      -37.7663791614  TIP3      4200            0.0000000000
     34919      4392  TIP3      H1             23.8553003413      -26.6988274509      -38.3669218640  TIP3      4200            0.0000000000
     34920      4392  TIP3      H2             24.1840486795      -28.1893712542      -38.3507082120  TIP3      4200            0.0000000000
     34921      4393  TIP3      OH2            20.2265674522      -25.1652341022      -28.7868358917  TIP3      4201            0.0000000000
     34922      4393  TIP3      H1             20.0877985335      -25.2521224576      -29.7425026990  TIP3      4201            0.0000000000
     34923      4393  TIP3      H2             20.4143179144      -26.0895538646      -28.5143089259  TIP3      4201            0.0000000000
     34924      4394  TIP3      OH2            20.3704255977      -22.3780150921      -32.1199611277  TIP3      4202            0.0000000000
     34925      4394  TIP3      H1             21.2405009936      -22.5679516570      -31.7562011462  TIP3      4202            0.0000000000
     34926      4394  TIP3      H2             20.1868583876      -21.5321788021      -31.6930991426  TIP3      4202            0.0000000000
     34927      4395  TIP3      OH2            29.6185556521      -22.5130010646      -27.4274260763  TIP3      4203            0.0000000000
     34928      4395  TIP3      H1             29.8335673990      -21.7497422859      -26.8621820129  TIP3      4203            0.0000000000
     34929      4395  TIP3      H2             28.8637775036      -22.1872025421      -27.9542579059  TIP3      4203            0.0000000000
     34930      4396  TIP3      OH2            30.0460173914      -18.3931351638      -38.0024952366  TIP3      4204            0.0000000000
     34931      4396  TIP3      H1             30.0578312569      -18.1540180984      -38.9546895462  TIP3      4204            0.0000000000
     34932      4396  TIP3      H2             30.0305187907      -17.5073449073      -37.5862500742  TIP3      4204            0.0000000000
     34933      4397  TIP3      OH2            23.6377465212      -19.7367010240      -35.7971853207  TIP3      4205            0.0000000000
     34934      4397  TIP3      H1             23.8838730212      -20.0678403464      -34.9007387106  TIP3      4205            0.0000000000
     34935      4397  TIP3      H2             22.7634004104      -20.1498570501      -35.9462859871  TIP3      4205            0.0000000000
     34936      4398  TIP3      OH2            32.8663505423      -19.2033140703      -40.8179631160  TIP3      4206            0.0000000000
     34937      4398  TIP3      H1             33.3296521414      -19.8919145987      -41.3399506877  TIP3      4206            0.0000000000
     34938      4398  TIP3      H2             32.8964681389      -19.5832523595      -39.9149864971  TIP3      4206            0.0000000000
     34939      4399  TIP3      OH2            32.4167878555      -19.6096905818      -38.1260560466  TIP3      4207            0.0000000000
     34940      4399  TIP3      H1             31.4803616311      -19.3257845180      -38.0250745573  TIP3      4207            0.0000000000
     34941      4399  TIP3      H2             32.5696100835      -20.0937391782      -37.3059060689  TIP3      4207            0.0000000000
     34942      4400  TIP3      OH2            35.1675058800      -30.1290928195      -25.7187054101  TIP3      4208            0.0000000000
     34943      4400  TIP3      H1             34.8900634832      -30.2850064644      -26.6325287341  TIP3      4208            0.0000000000
     34944      4400  TIP3      H2             36.0880779203      -30.4758048587      -25.7629319917  TIP3      4208            0.0000000000
     34945      4401  TIP3      OH2            22.6105946525      -23.9306938459      -28.4423311970  TIP3      4209            0.0000000000
     34946      4401  TIP3      H1             22.7149756170      -23.7286657047      -27.4999080874  TIP3      4209            0.0000000000
     34947      4401  TIP3      H2             21.7642883840      -24.4243966526      -28.4830346365  TIP3      4209            0.0000000000
     34948      4402  TIP3      OH2            25.8188051507      -34.5474978156      -31.9117135219  TIP3      4210            0.0000000000
     34949      4402  TIP3      H1             25.1514871637      -34.9499519922      -32.4864317535  TIP3      4210            0.0000000000
     34950      4402  TIP3      H2             25.2838085022      -34.0635134489      -31.2501187529  TIP3      4210            0.0000000000
     34951      4403  TIP3      OH2            30.2388169337      -35.5790009286      -27.9621556913  TIP3      4211            0.0000000000
     34952      4403  TIP3      H1             30.5885681812      -36.4018073947      -27.6055803318  TIP3      4211            0.0000000000
     34953      4403  TIP3      H2             29.3717891388      -35.8575305812      -28.3125421154  TIP3      4211            0.0000000000
     34954      4404  TIP3      OH2            33.2185428042      -31.7842130146      -28.0019400590  TIP3      4212            0.0000000000
     34955      4404  TIP3      H1             32.7124539809      -31.6423360210      -27.1807887397  TIP3      4212            0.0000000000
     34956      4404  TIP3      H2             33.1193087500      -30.9097838895      -28.4467329187  TIP3      4212            0.0000000000
     34957      4405  TIP3      OH2            34.1018255127      -26.4780694112      -41.5007885876  TIP3      4213            0.0000000000
     34958      4405  TIP3      H1             34.4107433018      -26.3041487716      -42.3968656626  TIP3      4213            0.0000000000
     34959      4405  TIP3      H2             34.5776436213      -25.7887939071      -41.0006715050  TIP3      4213            0.0000000000
     34960      4406  TIP3      OH2            30.2015422620      -33.0338793229      -41.2204125230  TIP3      4214            0.0000000000
     34961      4406  TIP3      H1             29.6086597269      -33.1662217327      -40.4632306454  TIP3      4214            0.0000000000
     34962      4406  TIP3      H2             30.1353887098      -33.8839273987      -41.6637602539  TIP3      4214            0.0000000000
     34963      4407  TIP3      OH2            25.5915103304      -30.4753759473      -30.6400226372  TIP3      4215            0.0000000000
     34964      4407  TIP3      H1             24.9853092297      -30.2719040012      -29.9120211758  TIP3      4215            0.0000000000
     34965      4407  TIP3      H2             25.7068054265      -29.5704694801      -31.0040260083  TIP3      4215            0.0000000000
     34966      4408  TIP3      OH2            25.5699565940      -30.3135418333      -36.1430267881  TIP3      4216            0.0000000000
     34967      4408  TIP3      H1             24.6214175220      -30.5515541241      -36.1517765757  TIP3      4216            0.0000000000
     34968      4408  TIP3      H2             25.8244812322      -30.5826942410      -37.0507012582  TIP3      4216            0.0000000000
     34969      4409  TIP3      OH2            31.2090354361      -29.1361311685      -36.8953013710  TIP3      4217            0.0000000000
     34970      4409  TIP3      H1             30.7525815938      -28.5448812093      -37.5403942418  TIP3      4217            0.0000000000
     34971      4409  TIP3      H2             31.7001567182      -29.7281035364      -37.5095845742  TIP3      4217            0.0000000000
     34972      4410  TIP3      OH2            29.7014056532      -28.8177108168      -26.0629588739  TIP3      4218            0.0000000000
     34973      4410  TIP3      H1             29.4601836787      -29.7006697558      -25.7579046442  TIP3      4218            0.0000000000
     34974      4410  TIP3      H2             30.6300045215      -28.7465958901      -25.8131832497  TIP3      4218            0.0000000000
     34975      4411  TIP3      OH2            32.0382303618      -30.0003851651      -34.1273846086  TIP3      4219            0.0000000000
     34976      4411  TIP3      H1             31.7790389405      -29.1469090745      -34.5293603284  TIP3      4219            0.0000000000
     34977      4411  TIP3      H2             31.8691967383      -30.5988408957      -34.8818938078  TIP3      4219            0.0000000000
     34978      4412  TIP3      OH2            22.7688321355      -30.0666903130      -29.2943894527  TIP3      4220            0.0000000000
     34979      4412  TIP3      H1             23.2321935138      -29.6105570836      -28.5695443402  TIP3      4220            0.0000000000
     34980      4412  TIP3      H2             22.7254992866      -30.9935813190      -28.9998573102  TIP3      4220            0.0000000000
     34981      4413  TIP3      OH2            26.6378538502      -32.7713647824      -41.7809672697  TIP3      4221            0.0000000000
     34982      4413  TIP3      H1             26.1179286756      -32.9793669443      -40.9708956482  TIP3      4221            0.0000000000
     34983      4413  TIP3      H2             26.5687380021      -31.8168732559      -41.9004697356  TIP3      4221            0.0000000000
     34984      4414  TIP3      OH2            20.2229300708      -32.8218904195      -35.0956290760  TIP3      4222            0.0000000000
     34985      4414  TIP3      H1             20.7661842510      -32.9882581320      -34.2996203879  TIP3      4222            0.0000000000
     34986      4414  TIP3      H2             20.4998360256      -33.5346809604      -35.6873679998  TIP3      4222            0.0000000000
     34987      4415  TIP3      OH2            21.3281852098      -32.0592816767      -39.4603598328  TIP3      4223            0.0000000000
     34988      4415  TIP3      H1             21.5488874698      -32.2951191534      -40.3771725624  TIP3      4223            0.0000000000
     34989      4415  TIP3      H2             20.4452527135      -31.6513178671      -39.5739756469  TIP3      4223            0.0000000000
     34990      4416  TIP3      OH2            31.3270898456      -28.4183931690      -29.9989686467  TIP3      4224            0.0000000000
     34991      4416  TIP3      H1             31.8927703922      -29.0420162231      -30.5170065861  TIP3      4224            0.0000000000
     34992      4416  TIP3      H2             30.8758734186      -29.0557583290      -29.4133217803  TIP3      4224            0.0000000000
     34993      4417  TIP3      OH2            28.2516324468      -32.4806727934      -34.7703527996  TIP3      4225            0.0000000000
     34994      4417  TIP3      H1             27.4212991976      -32.8668745170      -34.4612745916  TIP3      4225            0.0000000000
     34995      4417  TIP3      H2             28.9009095905      -32.9587210962      -34.2131375934  TIP3      4225            0.0000000000
     34996      4418  TIP3      OH2            23.0524839886      -31.1774546188      -36.7466799682  TIP3      4226            0.0000000000
     34997      4418  TIP3      H1             22.1212164980      -31.0025542690      -36.5087292488  TIP3      4226            0.0000000000
     34998      4418  TIP3      H2             23.1845322255      -32.1550761433      -36.6277770523  TIP3      4226            0.0000000000
     34999      4419  TIP3      OH2            26.3644538571      -30.8589784435      -38.6527978629  TIP3      4227            0.0000000000
     35000      4419  TIP3      H1             27.3057442529      -30.7001689917      -38.4864421295  TIP3      4227            0.0000000000
     35001      4419  TIP3      H2             26.1555973430      -30.2564971026      -39.3896256996  TIP3      4227            0.0000000000
     35002      4420  TIP3      OH2            32.0424965562      -33.2385782999      -31.9433789064  TIP3      4228            0.0000000000
     35003      4420  TIP3      H1             31.4775740529      -33.5292629514      -31.2064063101  TIP3      4228            0.0000000000
     35004      4420  TIP3      H2             31.4106150231      -33.2497634289      -32.6952416871  TIP3      4228            0.0000000000
     35005      4421  TIP3      OH2            25.1039228643      -29.6186215238      -40.8319499101  TIP3      4229            0.0000000000
     35006      4421  TIP3      H1             24.5407550201      -29.8563356128      -41.5984625739  TIP3      4229            0.0000000000
     35007      4421  TIP3      H2             25.9668911617      -29.4210460538      -41.2418497026  TIP3      4229            0.0000000000
     35008      4422  TIP3      OH2            35.4709939421      -18.0120803400      -25.2552272874  TIP3      4230            0.0000000000
     35009      4422  TIP3      H1             35.3571154150      -17.2340398594      -25.8204284821  TIP3      4230            0.0000000000
     35010      4422  TIP3      H2             36.2903109337      -17.7871673496      -24.7861343573  TIP3      4230            0.0000000000
     35011      4423  TIP3      OH2            28.8596916690      -29.6329552970      -33.3627513851  TIP3      4231            0.0000000000
     35012      4423  TIP3      H1             29.6381847586      -30.0872120939      -33.7285503836  TIP3      4231            0.0000000000
     35013      4423  TIP3      H2             28.5761577163      -30.2557496342      -32.6620031098  TIP3      4231            0.0000000000
     35014      4424  TIP3      OH2            23.9633261381      -33.6629710230      -36.4837058629  TIP3      4232            0.0000000000
     35015      4424  TIP3      H1             23.3849728867      -34.3727160861      -36.1068663212  TIP3      4232            0.0000000000
     35016      4424  TIP3      H2             24.3445156649      -34.1008230524      -37.2555896423  TIP3      4232            0.0000000000
     35017      4425  TIP3      OH2            28.2953493869      -31.4608962888      -30.9409322277  TIP3      4233            0.0000000000
     35018      4425  TIP3      H1             27.4702807258      -30.9673526867      -30.7826120132  TIP3      4233            0.0000000000
     35019      4425  TIP3      H2             28.8506311934      -31.1575403288      -30.2054830729  TIP3      4233            0.0000000000
     35020      4426  TIP3      OH2            28.4609582629      -25.2440682061      -38.5833635571  TIP3      4234            0.0000000000
     35021      4426  TIP3      H1             27.7409436641      -25.7827736401      -38.9678252392  TIP3      4234            0.0000000000
     35022      4426  TIP3      H2             28.0601278603      -24.9962820942      -37.7152152645  TIP3      4234            0.0000000000
     35023      4427  TIP3      OH2            35.5440639261      -25.7723456417      -29.8276389404  TIP3      4235            0.0000000000
     35024      4427  TIP3      H1             36.1346031264      -25.9766862050      -30.5948964822  TIP3      4235            0.0000000000
     35025      4427  TIP3      H2             34.6906061447      -25.9444163436      -30.2450722993  TIP3      4235            0.0000000000
     35026      4428  TIP3      OH2            32.9389904721      -32.4433489747      -40.2370115548  TIP3      4236            0.0000000000
     35027      4428  TIP3      H1             32.1533246172      -32.6456357976      -40.7861301537  TIP3      4236            0.0000000000
     35028      4428  TIP3      H2             32.7378570096      -31.5522535555      -39.8938492403  TIP3      4236            0.0000000000
     35029      4429  TIP3      OH2            30.0209114410      -25.1179620215      -27.5928990877  TIP3      4237            0.0000000000
     35030      4429  TIP3      H1             29.8891030410      -25.5368262459      -26.7331439755  TIP3      4237            0.0000000000
     35031      4429  TIP3      H2             29.7561899271      -24.1791451781      -27.4407379466  TIP3      4237            0.0000000000
     35032      4430  TIP3      OH2            32.8508191834      -30.2918941720      -38.6151099578  TIP3      4238            0.0000000000
     35033      4430  TIP3      H1             33.7487081583      -30.5457776140      -38.3061512443  TIP3      4238            0.0000000000
     35034      4430  TIP3      H2             33.0222758557      -29.4506863383      -39.0859295390  TIP3      4238            0.0000000000
     35035      4431  TIP3      OH2            23.6251231548      -25.9904763480      -33.1496642038  TIP3      4239            0.0000000000
     35036      4431  TIP3      H1             24.0176019858      -26.0321460420      -34.0551854125  TIP3      4239            0.0000000000
     35037      4431  TIP3      H2             24.0564441030      -26.7169109449      -32.6718346580  TIP3      4239            0.0000000000
     35038      4432  TIP3      OH2            30.3993136921      -23.8377793173      -39.6546133998  TIP3      4240            0.0000000000
     35039      4432  TIP3      H1             30.0388686801      -22.9717929860      -39.3775100560  TIP3      4240            0.0000000000
     35040      4432  TIP3      H2             29.7031900265      -24.4441137403      -39.3078620639  TIP3      4240            0.0000000000
     35041      4433  TIP3      OH2            20.7594755703      -27.8141496547      -27.8557090402  TIP3      4241            0.0000000000
     35042      4433  TIP3      H1             20.5088821732      -28.1150204774      -26.9597180031  TIP3      4241            0.0000000000
     35043      4433  TIP3      H2             20.1034158701      -28.2972762683      -28.3828276991  TIP3      4241            0.0000000000
     35044      4434  TIP3      OH2            27.1322278502      -27.8658101392      -25.8081101386  TIP3      4242            0.0000000000
     35045      4434  TIP3      H1             27.0796072258      -28.4639806801      -26.5759104690  TIP3      4242            0.0000000000
     35046      4434  TIP3      H2             28.1005997956      -27.7490232679      -25.7420443261  TIP3      4242            0.0000000000
     35047      4435  TIP3      OH2            32.4468460063      -22.6179476000      -27.6576623162  TIP3      4243            0.0000000000
     35048      4435  TIP3      H1             31.5317005350      -22.4999922526      -27.9677397678  TIP3      4243            0.0000000000
     35049      4435  TIP3      H2             32.3919093714      -22.1825195213      -26.7802600063  TIP3      4243            0.0000000000
     35050      4436  TIP3      OH2            35.6536610712      -21.2244665862      -39.0830187606  TIP3      4244            0.0000000000
     35051      4436  TIP3      H1             35.4298100627      -21.9881189719      -38.5283955483  TIP3      4244            0.0000000000
     35052      4436  TIP3      H2             35.9594653986      -21.6528115889      -39.8880668575  TIP3      4244            0.0000000000
     35053      4437  TIP3      OH2            33.4015930954      -26.7071626188      -31.9388401895  TIP3      4245            0.0000000000
     35054      4437  TIP3      H1             32.5420728456      -26.8545171772      -32.3933185677  TIP3      4245            0.0000000000
     35055      4437  TIP3      H2             33.9267190478      -27.4373459280      -32.3331817606  TIP3      4245            0.0000000000
     35056      4438  TIP3      OH2            26.0213399007      -22.2006620826      -35.8422889991  TIP3      4246            0.0000000000
     35057      4438  TIP3      H1             26.1283096428      -21.2646374093      -36.1257281508  TIP3      4246            0.0000000000
     35058      4438  TIP3      H2             25.0792471643      -22.3355487148      -36.0119271184  TIP3      4246            0.0000000000
     35059      4439  TIP3      OH2            21.4300669239      -27.2554650910      -40.8984030601  TIP3      4247            0.0000000000
     35060      4439  TIP3      H1             21.8344931890      -26.4466870502      -40.5399688247  TIP3      4247            0.0000000000
     35061      4439  TIP3      H2             20.4777862759      -27.1276789240      -40.7169580764  TIP3      4247            0.0000000000
     35062      4440  TIP3      OH2            27.2602969898      -24.5628824410      -36.2417896525  TIP3      4248            0.0000000000
     35063      4440  TIP3      H1             26.8552426133      -23.6777788100      -36.0905975460  TIP3      4248            0.0000000000
     35064      4440  TIP3      H2             26.6965354068      -25.1617078321      -35.7213923304  TIP3      4248            0.0000000000
     35065      4441  TIP3      OH2            27.8625743716      -20.2049865575      -29.8365483233  TIP3      4249            0.0000000000
     35066      4441  TIP3      H1             28.6012192050      -19.6446092736      -30.1143070012  TIP3      4249            0.0000000000
     35067      4441  TIP3      H2             28.0186549897      -20.3410625426      -28.8982722306  TIP3      4249            0.0000000000
     35068      4442  TIP3      OH2            26.2601322119      -19.6393641573      -36.7076536985  TIP3      4250            0.0000000000
     35069      4442  TIP3      H1             25.2893247206      -19.7012030887      -36.5897411291  TIP3      4250            0.0000000000
     35070      4442  TIP3      H2             26.3741731206      -18.8332344309      -36.1620968210  TIP3      4250            0.0000000000
     35071      4443  TIP3      OH2            31.1710545826      -24.5718297697      -30.3077873322  TIP3      4251            0.0000000000
     35072      4443  TIP3      H1             31.1362666103      -24.7605747683      -29.3461791939  TIP3      4251            0.0000000000
     35073      4443  TIP3      H2             31.6528847502      -25.3529891371      -30.6435559003  TIP3      4251            0.0000000000
     35074      4444  TIP3      OH2            33.8053882671      -23.3590734816      -40.5930239346  TIP3      4252            0.0000000000
     35075      4444  TIP3      H1             33.9260465571      -23.8952990549      -39.7810255439  TIP3      4252            0.0000000000
     35076      4444  TIP3      H2             32.9049876959      -23.6127158948      -40.8328590287  TIP3      4252            0.0000000000
     35077      4445  TIP3      OH2            34.7449152745      -20.4765205829      -27.7738050741  TIP3      4253            0.0000000000
     35078      4445  TIP3      H1             33.9413532881      -21.0300288198      -27.8171142325  TIP3      4253            0.0000000000
     35079      4445  TIP3      H2             34.5179645926      -19.7209436460      -28.3545340157  TIP3      4253            0.0000000000
     35080      4446  TIP3      OH2            22.2028582280      -33.1494739381      -28.2719127221  TIP3      4254            0.0000000000
     35081      4446  TIP3      H1             21.3103300593      -32.8674985272      -28.5058833935  TIP3      4254            0.0000000000
     35082      4446  TIP3      H2             22.0623125125      -34.0145112473      -27.8358691917  TIP3      4254            0.0000000000
     35083      4447  TIP3      OH2            35.0210812442      -24.7880308327      -38.7229053492  TIP3      4255            0.0000000000
     35084      4447  TIP3      H1             34.9540893527      -25.5735311084      -38.1317110903  TIP3      4255            0.0000000000
     35085      4447  TIP3      H2             35.9397744553      -24.5017575732      -38.5032279160  TIP3      4255            0.0000000000
     35086      4448  TIP3      OH2            21.9278848175      -21.0508844522      -30.0603335003  TIP3      4256            0.0000000000
     35087      4448  TIP3      H1             22.4760856823      -21.8243389697      -29.8494800843  TIP3      4256            0.0000000000
     35088      4448  TIP3      H2             21.9247797275      -20.5996990788      -29.2068408773  TIP3      4256            0.0000000000
     35089      4449  TIP3      OH2            26.5490556967      -22.8127708260      -40.0114788116  TIP3      4257            0.0000000000
     35090      4449  TIP3      H1             27.1644300941      -23.1872588600      -39.3590799139  TIP3      4257            0.0000000000
     35091      4449  TIP3      H2             26.6359177899      -21.8509558321      -39.8127135686  TIP3      4257            0.0000000000
     35092      4450  TIP3      OH2            23.2142732264      -25.5921761671      -39.5703012295  TIP3      4258            0.0000000000
     35093      4450  TIP3      H1             22.5702291243      -25.1265160106      -38.9982426259  TIP3      4258            0.0000000000
     35094      4450  TIP3      H2             23.6640439796      -24.8306957601      -39.9849722960  TIP3      4258            0.0000000000
     35095      4451  TIP3      OH2            31.1230323005      -33.3262931620      -29.2220399563  TIP3      4259            0.0000000000
     35096      4451  TIP3      H1             32.0478772539      -33.2138404659      -28.9549046277  TIP3      4259            0.0000000000
     35097      4451  TIP3      H2             30.8329471907      -34.0712578946      -28.6427614308  TIP3      4259            0.0000000000
     35098      4452  TIP3      OH2            31.5669137865      -33.3423430960      -37.9339515409  TIP3      4260            0.0000000000
     35099      4452  TIP3      H1             32.0083441112      -32.8486687739      -38.6538023624  TIP3      4260            0.0000000000
     35100      4452  TIP3      H2             32.0224035365      -32.9720989662      -37.1466503358  TIP3      4260            0.0000000000
     35101      4453  TIP3      OH2            29.4194829799      -21.4014860224      -39.0157402970  TIP3      4261            0.0000000000
     35102      4453  TIP3      H1             28.7446714401      -20.7170450434      -38.9052340220  TIP3      4261            0.0000000000
     35103      4453  TIP3      H2             29.9268542809      -21.0480827051      -39.7769059123  TIP3      4261            0.0000000000
     35104      4454  TIP3      OH2            29.2114800529      -31.8590202960      -37.3001080045  TIP3      4262            0.0000000000
     35105      4454  TIP3      H1             29.5509937608      -30.9562276781      -37.3479999087  TIP3      4262            0.0000000000
     35106      4454  TIP3      H2             28.9042458802      -31.9455290840      -36.3728485421  TIP3      4262            0.0000000000
     35107      4455  TIP3      OH2            30.2825978882      -30.5363299408      -28.4963303053  TIP3      4263            0.0000000000
     35108      4455  TIP3      H1             30.6205857157      -30.3383230626      -27.6053216136  TIP3      4263            0.0000000000
     35109      4455  TIP3      H2             30.6992592637      -31.3963878472      -28.7047373115  TIP3      4263            0.0000000000
     35110      4456  TIP3      OH2            29.7034133972      -34.8440422879      -36.4760888751  TIP3      4264            0.0000000000
     35111      4456  TIP3      H1             29.5240751251      -34.0679232922      -35.9125484720  TIP3      4264            0.0000000000
     35112      4456  TIP3      H2             30.4090623387      -34.4519489316      -37.0473904247  TIP3      4264            0.0000000000
     35113      4457  TIP3      OH2            26.6766613814      -20.2560002997      -39.2823710757  TIP3      4265            0.0000000000
     35114      4457  TIP3      H1             27.0901204009      -19.4533684937      -39.6671158490  TIP3      4265            0.0000000000
     35115      4457  TIP3      H2             26.5371120640      -19.9383280038      -38.3626170538  TIP3      4265            0.0000000000
     35116      4458  TIP3      OH2            25.4766089180      -33.2765467186      -39.3909445497  TIP3      4266            0.0000000000
     35117      4458  TIP3      H1             25.4591540507      -32.4367927801      -38.8839872401  TIP3      4266            0.0000000000
     35118      4458  TIP3      H2             26.3944346151      -33.5463139428      -39.1516558987  TIP3      4266            0.0000000000
     35119      4459  TIP3      OH2            35.6868339570      -33.1106958154      -27.2852387135  TIP3      4267            0.0000000000
     35120      4459  TIP3      H1             35.0033021328      -32.4263839801      -27.2125568393  TIP3      4267            0.0000000000
     35121      4459  TIP3      H2             35.5137950161      -33.4215189243      -28.1866237430  TIP3      4267            0.0000000000
     35122      4460  TIP3      OH2            34.4358011053      -28.9124301397      -32.9972223388  TIP3      4268            0.0000000000
     35123      4460  TIP3      H1             33.6933669756      -29.4008550506      -33.3967578555  TIP3      4268            0.0000000000
     35124      4460  TIP3      H2             34.9411481419      -29.6262883205      -32.5844831410  TIP3      4268            0.0000000000
     35125      4461  TIP3      OH2            23.7683104503      -23.1068927510      -40.9336525707  TIP3      4269            0.0000000000
     35126      4461  TIP3      H1             24.5156509234      -22.6789606773      -40.4778172176  TIP3      4269            0.0000000000
     35127      4461  TIP3      H2             24.2579761299      -23.5521101791      -41.6419845810  TIP3      4269            0.0000000000
     35128      4462  TIP3      OH2            22.1003631737      -29.8318890544      -41.3693071893  TIP3      4270            0.0000000000
     35129      4462  TIP3      H1             22.1071120854      -28.8608251094      -41.4648460722  TIP3      4270            0.0000000000
     35130      4462  TIP3      H2             21.4104101280      -30.1177263856      -41.9883273460  TIP3      4270            0.0000000000
     35131      4463  TIP3      OH2            35.8574101643      -19.9072771102      -31.7680268702  TIP3      4271            0.0000000000
     35132      4463  TIP3      H1             35.5570228762      -19.0871413955      -32.2164367613  TIP3      4271            0.0000000000
     35133      4463  TIP3      H2             36.7159210765      -19.9956623892      -32.2031500305  TIP3      4271            0.0000000000
     35134      4464  TIP3      OH2            22.7970083305      -35.6212704159      -32.5838937113  TIP3      4272            0.0000000000
     35135      4464  TIP3      H1             22.9904047802      -35.9634664455      -33.4742075214  TIP3      4272            0.0000000000
     35136      4464  TIP3      H2             23.1957045279      -36.3070610921      -32.0351252101  TIP3      4272            0.0000000000
     35137      4465  TIP3      OH2            21.4313860500      -21.7462146031      -36.7820192033  TIP3      4273            0.0000000000
     35138      4465  TIP3      H1             20.6235187572      -21.3286737006      -36.4529057888  TIP3      4273            0.0000000000
     35139      4465  TIP3      H2             21.5995075744      -21.1893236657      -37.5659875897  TIP3      4273            0.0000000000
     35140      4466  TIP3      OH2            20.9379220056      -19.0368241465      -25.4059212344  TIP3      4274            0.0000000000
     35141      4466  TIP3      H1             21.7996702916      -19.4185553282      -25.1780708609  TIP3      4274            0.0000000000
     35142      4466  TIP3      H2             20.4145490613      -19.8180532283      -25.6573351955  TIP3      4274            0.0000000000
     35143      4467  TIP3      OH2            30.2042850062      -20.3605553373      -41.4459332245  TIP3      4275            0.0000000000
     35144      4467  TIP3      H1             29.6944613875      -20.9692600227      -42.0327992171  TIP3      4275            0.0000000000
     35145      4467  TIP3      H2             30.8629974615      -20.0587824731      -42.0961505938  TIP3      4275            0.0000000000
     35146      4468  TIP3      OH2            32.2800569720      -21.4909329336      -25.2757850700  TIP3      4276            0.0000000000
     35147      4468  TIP3      H1             31.9094635597      -22.1794353398      -24.6873932378  TIP3      4276            0.0000000000
     35148      4468  TIP3      H2             33.0259246830      -21.1896443822      -24.7064873057  TIP3      4276            0.0000000000
     35149      4469  TIP3      OH2            34.6793846474      -20.7266793121      -42.1033493419  TIP3      4277            0.0000000000
     35150      4469  TIP3      H1             34.4614648668      -21.4333859746      -41.4640769335  TIP3      4277            0.0000000000
     35151      4469  TIP3      H2             35.5733674960      -20.4533425180      -41.8388741119  TIP3      4277            0.0000000000
     35152      4470  TIP3      OH2            25.6756558613      -25.1888101035      -42.1568801577  TIP3      4278            0.0000000000
     35153      4470  TIP3      H1             26.1250821965      -25.5358708695      -41.3702318971  TIP3      4278            0.0000000000
     35154      4470  TIP3      H2             26.0667108200      -25.7411344235      -42.8644120272  TIP3      4278            0.0000000000
     35155      4471  TIP3      OH2            33.0569370143      -25.3288697047      -27.4344935306  TIP3      4279            0.0000000000
     35156      4471  TIP3      H1             33.9674818539      -24.9819973664      -27.3454816934  TIP3      4279            0.0000000000
     35157      4471  TIP3      H2             32.5869326343      -24.4718049668      -27.4644937925  TIP3      4279            0.0000000000
     35158      4472  TIP3      OH2            26.7783909376      -27.0861032312      -40.0008065169  TIP3      4280            0.0000000000
     35159      4472  TIP3      H1             26.3173276336      -27.7361601105      -39.4551435183  TIP3      4280            0.0000000000
     35160      4472  TIP3      H2             27.2531091430      -27.6500601002      -40.6394957647  TIP3      4280            0.0000000000
     35161      4473  TIP3      OH2            26.3532732881      -29.4439548463      -27.9760187451  TIP3      4281            0.0000000000
     35162      4473  TIP3      H1             25.5223724099      -28.9243398204      -27.9817376253  TIP3      4281            0.0000000000
     35163      4473  TIP3      H2             26.8839274193      -28.9579599999      -28.6444086803  TIP3      4281            0.0000000000
     35164      4474  TIP3      OH2            28.0101030825      -28.8450852965      -41.9411596561  TIP3      4282            0.0000000000
     35165      4474  TIP3      H1             28.1471019451      -28.8749471475      -42.8987881150  TIP3      4282            0.0000000000
     35166      4474  TIP3      H2             28.9381991366      -28.6444127967      -41.6514841645  TIP3      4282            0.0000000000
     35167      4475  TIP3      OH2            30.8538126268      -26.1328940314      -24.4603923622  TIP3      4283            0.0000000000
     35168      4475  TIP3      H1             31.4044841071      -26.4160224442      -25.2104483921  TIP3      4283            0.0000000000
     35169      4475  TIP3      H2             31.3853377818      -26.4140753421      -23.7057277222  TIP3      4283            0.0000000000
     35170      4476  TIP3      OH2            25.9997151590      -31.6449301021      -26.6201616068  TIP3      4284            0.0000000000
     35171      4476  TIP3      H1             26.3552797824      -32.2466375203      -27.2994338376  TIP3      4284            0.0000000000
     35172      4476  TIP3      H2             26.1963845028      -30.7909209178      -27.0786349715  TIP3      4284            0.0000000000
     35173      4477  TIP3      OH2            26.8581083812      -33.1378008704      -28.9225254334  TIP3      4285            0.0000000000
     35174      4477  TIP3      H1             27.3664991684      -32.7830128467      -29.6761939696  TIP3      4285            0.0000000000
     35175      4477  TIP3      H2             25.9257397989      -33.0417859006      -29.2375220987  TIP3      4285            0.0000000000
     35176      4478  TIP3      OH2            28.2185863933      -28.1243876096      -29.4434949573  TIP3      4286            0.0000000000
     35177      4478  TIP3      H1             29.1693339865      -28.1331001448      -29.2428663542  TIP3      4286            0.0000000000
     35178      4478  TIP3      H2             28.0429268193      -27.1716145108      -29.4930105433  TIP3      4286            0.0000000000
     35179      4479  TIP3      OH2            33.1178945694      -27.4295846659      -25.8279189213  TIP3      4287            0.0000000000
     35180      4479  TIP3      H1             33.1158339666      -26.6645659911      -26.4386170813  TIP3      4287            0.0000000000
     35181      4479  TIP3      H2             34.0869608685      -27.5776547896      -25.7406074174  TIP3      4287            0.0000000000
     35182      4480  TIP3      OH2            24.4238836889      -31.1260571513      -24.4449434872  TIP3      4288            0.0000000000
     35183      4480  TIP3      H1             23.6702905730      -31.7240851198      -24.6125993622  TIP3      4288            0.0000000000
     35184      4480  TIP3      H2             25.0297328853      -31.3942884628      -25.1726840668  TIP3      4288            0.0000000000
     35185      4481  TIP3      OH2            27.4351493525      -35.7913391896      -28.8834795209  TIP3      4289            0.0000000000
     35186      4481  TIP3      H1             27.4505027658      -34.8110304153      -28.7400417660  TIP3      4289            0.0000000000
     35187      4481  TIP3      H2             26.4964345909      -35.8597322912      -29.0997458579  TIP3      4289            0.0000000000
     35188      4482  TIP3      OH2            31.4553104761      -31.7151784641      -25.8759514002  TIP3      4290            0.0000000000
     35189      4482  TIP3      H1             30.6660050370      -32.2303827841      -26.1028567593  TIP3      4290            0.0000000000
     35190      4482  TIP3      H2             31.9554330669      -32.3323900086      -25.2994356573  TIP3      4290            0.0000000000
     35191      4483  TIP3      OH2            32.5386879918      -33.5704926152      -23.8520392229  TIP3      4291            0.0000000000
     35192      4483  TIP3      H1             32.2140437949      -34.4823735749      -23.7633592868  TIP3      4291            0.0000000000
     35193      4483  TIP3      H2             33.3425151294      -33.7216850197      -23.3248633286  TIP3      4291            0.0000000000
     35194      4484  TIP3      OH2            22.4006868534      -32.9271798033      -24.4376807342  TIP3      4292            0.0000000000
     35195      4484  TIP3      H1             22.8362981524      -33.7414411276      -24.7326913856  TIP3      4292            0.0000000000
     35196      4484  TIP3      H2             22.2522043202      -33.1481947955      -23.4789723580  TIP3      4292            0.0000000000
     35197      4485  TIP3      OH2            27.3918323972       37.2875193472      -25.9952492049  TIP3      4293            0.0000000000
     35198      4485  TIP3      H1             27.0537035300       36.4944932040      -25.5369650990  TIP3      4293            0.0000000000
     35199      4485  TIP3      H2             27.5204646001       37.0029359562      -26.9146845221  TIP3      4293            0.0000000000
     35200      4486  TIP3      OH2            27.6231038441      -18.0852555569      -40.4940759523  TIP3      4294            0.0000000000
     35201      4486  TIP3      H1             28.2746278842      -17.3705512059      -40.5101832071  TIP3      4294            0.0000000000
     35202      4486  TIP3      H2             27.5406536860      -18.2893504404      -41.4384573706  TIP3      4294            0.0000000000
     35203      4487  TIP3      OH2            20.9327757237      -23.6414172968      -41.1415544296  TIP3      4295            0.0000000000
     35204      4487  TIP3      H1             21.8782049913      -23.3851031490      -41.1537074132  TIP3      4295            0.0000000000
     35205      4487  TIP3      H2             20.7480220893      -23.7454743688      -42.0901970966  TIP3      4295            0.0000000000
     35206      4488  TIP3      OH2            20.0002535027      -18.3308279492      -36.3652077428  TIP3      4296            0.0000000000
     35207      4488  TIP3      H1             19.1848716253      -18.8093834673      -36.6465536747  TIP3      4296            0.0000000000
     35208      4488  TIP3      H2             20.2569886910      -18.8668568785      -35.5843111729  TIP3      4296            0.0000000000
     35209      4489  TIP3      OH2            20.8086134472      -19.9317841795      -34.3481287586  TIP3      4297            0.0000000000
     35210      4489  TIP3      H1             20.3335949138      -20.6907840402      -33.9609319687  TIP3      4297            0.0000000000
     35211      4489  TIP3      H2             21.3546484499      -19.6218027166      -33.5881602209  TIP3      4297            0.0000000000
     35212      4490  TIP3      OH2            35.8306146377      -23.7899087596      -23.8809733429  TIP3      4298            0.0000000000
     35213      4490  TIP3      H1             35.4061958733      -23.3692941757      -23.1005659445  TIP3      4298            0.0000000000
     35214      4490  TIP3      H2             35.8847295426      -23.0429845709      -24.5002185489  TIP3      4298            0.0000000000
     35215      4491  TIP3      OH2            36.3252421057      -22.1522107136      -29.3650016678  TIP3      4299            0.0000000000
     35216      4491  TIP3      H1             35.7427560506      -21.5281776966      -28.8974571708  TIP3      4299            0.0000000000
     35217      4491  TIP3      H2             35.7841079846      -22.3323543836      -30.1758326640  TIP3      4299            0.0000000000
     35218      4492  TIP3      OH2            36.3836829190      -30.3799307813      -41.4565138724  TIP3      4300            0.0000000000
     35219      4492  TIP3      H1             36.1977424525      -29.7620176417      -42.1716511007  TIP3      4300            0.0000000000
     35220      4492  TIP3      H2             35.9758662128      -31.1969282588      -41.8106016176  TIP3      4300            0.0000000000
     35221      4493  TIP3      OH2            35.4542762094      -28.7435465207      -35.7470757111  TIP3      4301            0.0000000000
     35222      4493  TIP3      H1             35.1271200821      -29.5065804750      -35.2570444277  TIP3      4301            0.0000000000
     35223      4493  TIP3      H2             35.7829270772      -28.2168375446      -34.9886459021  TIP3      4301            0.0000000000
     35224      4494  TIP3      OH2            20.5279284903      -26.5402910080      -31.5935042380  TIP3      4302            0.0000000000
     35225      4494  TIP3      H1             20.5869019587      -26.8629296454      -32.5064386664  TIP3      4302            0.0000000000
     35226      4494  TIP3      H2             21.4151673262      -26.8288601983      -31.2585475819  TIP3      4302            0.0000000000
     35227      4495  TIP3      OH2            35.8472575487      -27.0427608400      -25.8727143976  TIP3      4303            0.0000000000
     35228      4495  TIP3      H1             36.6255509924      -27.6052952838      -25.6699831336  TIP3      4303            0.0000000000
     35229      4495  TIP3      H2             36.1975178182      -26.4339891161      -26.5424236832  TIP3      4303            0.0000000000
     35230      4496  TIP3      OH2            35.7182560374      -33.0738189177      -42.1294863860  TIP3      4304            0.0000000000
     35231      4496  TIP3      H1             35.8419553742      -33.7731816117      -41.4704684055  TIP3      4304            0.0000000000
     35232      4496  TIP3      H2             34.7440762103      -33.0278373961      -42.1630840490  TIP3      4304            0.0000000000
     35233      4497  TIP3      OH2            35.2559166466      -31.4017704481      -37.6211648036  TIP3      4305            0.0000000000
     35234      4497  TIP3      H1             35.4599817173      -32.1658124370      -37.0540267218  TIP3      4305            0.0000000000
     35235      4497  TIP3      H2             35.7561645706      -31.6245303934      -38.4288643879  TIP3      4305            0.0000000000
     35236      4498  TIP3      OH2            35.7065377427      -31.3944294137      -31.6127420677  TIP3      4306            0.0000000000
     35237      4498  TIP3      H1             36.4227172645      -31.7416804117      -32.1809417210  TIP3      4306            0.0000000000
     35238      4498  TIP3      H2             36.1751189109      -30.6717532686      -31.1464538731  TIP3      4306            0.0000000000
     35239      4499  TIP3      OH2            36.1693301089      -30.1039289624      -28.7085490623  TIP3      4307            0.0000000000
     35240      4499  TIP3      H1             35.2846864825      -29.8204201287      -29.0078710754  TIP3      4307            0.0000000000
     35241      4499  TIP3      H2             36.7475678206      -29.9083641831      -29.4681232949  TIP3      4307            0.0000000000
     35242      4500  TIP3      OH2            20.1207183002      -31.5462818640      -25.4169838233  TIP3      4308            0.0000000000
     35243      4500  TIP3      H1             21.0279347580      -31.8476602582      -25.2177002945  TIP3      4308            0.0000000000
     35244      4500  TIP3      H2             19.6035299008      -32.2788519281      -25.0444661872  TIP3      4308            0.0000000000
     35245      4501  TIP3      OH2            35.0605909480      -34.2983727527      -37.0280722218  TIP3      4309            0.0000000000
     35246      4501  TIP3      H1             35.0766326485      -34.3726396845      -36.0619712795  TIP3      4309            0.0000000000
     35247      4501  TIP3      H2             34.5765353809      -35.0989183063      -37.3082848038  TIP3      4309            0.0000000000
     35248      4502  TIP3      OH2            21.3999361120      -33.2273392965      -32.6555326896  TIP3      4310            0.0000000000
     35249      4502  TIP3      H1             21.8002368293      -34.0739457583      -32.3626373542  TIP3      4310            0.0000000000
     35250      4502  TIP3      H2             22.1543303197      -32.6149321181      -32.5840565013  TIP3      4310            0.0000000000
     35251      4503  TIP3      OH2            19.9943156108      -30.4383252283      -31.4089097969  TIP3      4311            0.0000000000
     35252      4503  TIP3      H1             20.5314992960      -30.6104676515      -32.2073171883  TIP3      4311            0.0000000000
     35253      4503  TIP3      H2             20.4178446386      -29.6376955788      -31.0831167066  TIP3      4311            0.0000000000
     35254      4504  TIP3      OH2            20.3033306084      -33.9877596286      -37.7934930657  TIP3      4312            0.0000000000
     35255      4504  TIP3      H1             19.3478463336      -33.8416221893      -37.7493306777  TIP3      4312            0.0000000000
     35256      4504  TIP3      H2             20.6179327796      -33.2491017164      -38.3490773273  TIP3      4312            0.0000000000
     35257      4505  TIP3      OH2            34.6910205309      -19.0728997102      -35.9144538059  TIP3      4313            0.0000000000
     35258      4505  TIP3      H1             35.4860511713      -19.6306824175      -35.9609386532  TIP3      4313            0.0000000000
     35259      4505  TIP3      H2             34.7792316483      -18.6462173310      -35.0408586124  TIP3      4313            0.0000000000
     35260      4506  TIP3      OH2            20.1947228428      -35.3643513829      -29.7065897341  TIP3      4314            0.0000000000
     35261      4506  TIP3      H1             19.6806642031      -35.5447156534      -28.8973942454  TIP3      4314            0.0000000000
     35262      4506  TIP3      H2             19.5692780138      -34.8236227583      -30.2215539168  TIP3      4314            0.0000000000
     35263      4507  TIP3      OH2            22.3200744745      -22.4245868830      -25.7342209525  TIP3      4315            0.0000000000
     35264      4507  TIP3      H1             21.3836577993      -22.3177745291      -25.9831509649  TIP3      4315            0.0000000000
     35265      4507  TIP3      H2             22.2326386228      -22.5191943484      -24.7793810105  TIP3      4315            0.0000000000
     35266      4508  TIP3      OH2            29.5352880825      -19.2185289554      -26.4890648338  TIP3      4316            0.0000000000
     35267      4508  TIP3      H1             29.4280480478      -19.6187825437      -25.6003444709  TIP3      4316            0.0000000000
     35268      4508  TIP3      H2             30.4833298517      -18.9454830335      -26.4887980997  TIP3      4316            0.0000000000
     35269      4509  TIP3      OH2            31.9405551611      -18.1091825669      -26.7289223019  TIP3      4317            0.0000000000
     35270      4509  TIP3      H1             32.7598403848      -18.1663784860      -27.2319388139  TIP3      4317            0.0000000000
     35271      4509  TIP3      H2             32.2393489893      -17.8860725664      -25.8225805338  TIP3      4317            0.0000000000
     35272      4510  TIP3      OH2            22.5492085061      -17.5566620587      -29.1231892928  TIP3      4318            0.0000000000
     35273      4510  TIP3      H1             21.8930868430      -17.0008671234      -29.5730047731  TIP3      4318            0.0000000000
     35274      4510  TIP3      H2             22.5753128042      -17.1474948231      -28.2453568035  TIP3      4318            0.0000000000
     35275      4511  TIP3      OH2            25.1627044716      -18.2091152982      -30.0212259789  TIP3      4319            0.0000000000
     35276      4511  TIP3      H1             24.2813358121      -18.2331225829      -29.6046765799  TIP3      4319            0.0000000000
     35277      4511  TIP3      H2             24.9529346931      -17.9274815619      -30.9187008748  TIP3      4319            0.0000000000
     35278      4512  TIP3      OH2            30.0746072595      -18.4969858906      -31.0280475163  TIP3      4320            0.0000000000
     35279      4512  TIP3      H1             29.4952902955      -18.1006689828      -31.6994832534  TIP3      4320            0.0000000000
     35280      4512  TIP3      H2             30.0425271476      -17.8212115598      -30.3194441028  TIP3      4320            0.0000000000
     35281      4513  TIP3      OH2            31.8182316321      -19.9044085430      -29.4591470706  TIP3      4321            0.0000000000
     35282      4513  TIP3      H1             31.2316639436      -19.4009462296      -30.0665779401  TIP3      4321            0.0000000000
     35283      4513  TIP3      H2             32.5988173633      -19.3278054738      -29.5178349949  TIP3      4321            0.0000000000
     35284      4514  TIP3      OH2            34.5445911320      -18.4567504488      -29.8818336724  TIP3      4322            0.0000000000
     35285      4514  TIP3      H1             35.0865338171      -17.6759861234      -30.0857884757  TIP3      4322            0.0000000000
     35286      4514  TIP3      H2             35.0379708152      -19.1380041038      -30.3950187862  TIP3      4322            0.0000000000
     35287      4515  TIP3      OH2            22.3500205424      -19.2635136007      -32.1692294627  TIP3      4323            0.0000000000
     35288      4515  TIP3      H1             22.0466163188      -19.8613676625      -31.4585133590  TIP3      4323            0.0000000000
     35289      4515  TIP3      H2             23.1994588223      -19.7059216379      -32.4162534322  TIP3      4323            0.0000000000
     35290      4516  TIP3      OH2            24.4274175514      -20.4333888435      -33.2482039716  TIP3      4324            0.0000000000
     35291      4516  TIP3      H1             24.3123558635      -21.4078588542      -33.1645993761  TIP3      4324            0.0000000000
     35292      4516  TIP3      H2             25.3330357906      -20.3156854338      -32.8838388035  TIP3      4324            0.0000000000
     35293      4517  TIP3      OH2            26.8389897850      -20.2658166007      -32.2422776884  TIP3      4325            0.0000000000
     35294      4517  TIP3      H1             27.1269657772      -21.1957103991      -32.1995029117  TIP3      4325            0.0000000000
     35295      4517  TIP3      H2             26.9274185222      -20.0260842577      -31.2903174950  TIP3      4325            0.0000000000
     35296      4518  TIP3      OH2            30.2411585996      -34.0012947547      -33.7501307243  TIP3      4326            0.0000000000
     35297      4518  TIP3      H1             29.5763629655      -34.6063779756      -33.3573519412  TIP3      4326            0.0000000000
     35298      4518  TIP3      H2             30.8564968876      -34.6518986045      -34.1240544807  TIP3      4326            0.0000000000
     35299      4519  TIP3      OH2            35.1563498301      -36.2026046964      -32.6400578590  TIP3      4327            0.0000000000
     35300      4519  TIP3      H1             35.6202333333      -36.0213205106      -33.4709331811  TIP3      4327            0.0000000000
     35301      4519  TIP3      H2             34.2309394017      -36.1142106986      -32.9006940062  TIP3      4327            0.0000000000
     35302      4520  TIP3      OH2            22.4284782512      -35.5665700666      -35.5446843831  TIP3      4328            0.0000000000
     35303      4520  TIP3      H1             21.6045398350      -35.9693867330      -35.1931573985  TIP3      4328            0.0000000000
     35304      4520  TIP3      H2             23.0672798183      -36.2710025866      -35.2972134904  TIP3      4328            0.0000000000
     35305      4521  TIP3      OH2            20.7840854106      -35.5192036440      -40.6561359907  TIP3      4329            0.0000000000
     35306      4521  TIP3      H1             21.5705046155      -34.9587708394      -40.7882141809  TIP3      4329            0.0000000000
     35307      4521  TIP3      H2             20.7657042040      -35.6346611101      -39.6941690155  TIP3      4329            0.0000000000
     35308      4522  TIP3      OH2            27.3832656405      -35.7915161782      -35.3576827794  TIP3      4330            0.0000000000
     35309      4522  TIP3      H1             28.2188308955      -35.4781630144      -35.7631018422  TIP3      4330            0.0000000000
     35310      4522  TIP3      H2             27.6562101544      -35.8113150021      -34.4229965532  TIP3      4330            0.0000000000
     35311      4523  TIP3      OH2            32.8769814737      -35.7263222802      -34.5461676759  TIP3      4331            0.0000000000
     35312      4523  TIP3      H1             32.6542134447      -35.4852586852      -35.4641448023  TIP3      4331            0.0000000000
     35313      4523  TIP3      H2             32.4456349507      -36.5914414197      -34.4452296136  TIP3      4331            0.0000000000
     35314      4524  TIP3      OH2            33.3919842226      -36.0328408276      -38.4275276021  TIP3      4332            0.0000000000
     35315      4524  TIP3      H1             33.5929911196      -35.1887142193      -38.8646143714  TIP3      4332            0.0000000000
     35316      4524  TIP3      H2             33.2824733678      -36.6193072399      -39.1822050028  TIP3      4332            0.0000000000
     35317      4525  TIP3      OH2            21.3527866150      -19.9418764579      -38.8561210617  TIP3      4333            0.0000000000
     35318      4525  TIP3      H1             20.4242994163      -19.9533535879      -39.1622535261  TIP3      4333            0.0000000000
     35319      4525  TIP3      H2             21.5238792522      -18.9950250593      -39.0403015415  TIP3      4333            0.0000000000
     35320      4526  TIP3      OH2            22.9621143324      -34.2366668895      -41.6744079398  TIP3      4334            0.0000000000
     35321      4526  TIP3      H1             23.8390339259      -34.4502196520      -42.0376638175  TIP3      4334            0.0000000000
     35322      4526  TIP3      H2             23.2312455307      -33.6995489115      -40.9132087806  TIP3      4334            0.0000000000
     35323      4527  TIP3      OH2            28.1308685538      -33.9905092029      -38.7779261881  TIP3      4335            0.0000000000
     35324      4527  TIP3      H1             28.4861903782      -34.6774189568      -38.1879676095  TIP3      4335            0.0000000000
     35325      4527  TIP3      H2             28.6555595403      -33.2159901881      -38.4751859066  TIP3      4335            0.0000000000
     35326      4528  TIP3      OH2            30.5711960317      -17.8558365137      -40.5576030759  TIP3      4336            0.0000000000
     35327      4528  TIP3      H1             31.5316647396      -18.0675176625      -40.5880008625  TIP3      4336            0.0000000000
     35328      4528  TIP3      H2             30.2322870141      -18.7365067735      -40.8350011716  TIP3      4336            0.0000000000
     35329      4529  TIP3      OH2            22.2398677201      -35.9398151776      -26.9799152130  TIP3      4337            0.0000000000
     35330      4529  TIP3      H1             21.5618314078      -36.2175748419      -26.3511661928  TIP3      4337            0.0000000000
     35331      4529  TIP3      H2             22.9776582859      -35.7768663012      -26.3588745003  TIP3      4337            0.0000000000
     35332      4530  TIP3      OH2            23.9502183679      -35.7727796586      -24.6469696750  TIP3      4338            0.0000000000
     35333      4530  TIP3      H1             24.8240073607      -36.1899604292      -24.4862352792  TIP3      4338            0.0000000000
     35334      4530  TIP3      H2             23.5330696901      -35.8166741306      -23.7727966283  TIP3      4338            0.0000000000
     35335      4531  TIP3      OH2            23.1060943074      -18.7132747850      -41.6795850875  TIP3      4339            0.0000000000
     35336      4531  TIP3      H1             22.3683499161      -18.5100447071      -41.0900529016  TIP3      4339            0.0000000000
     35337      4531  TIP3      H2             23.3925690177      -19.5859676380      -41.3869346549  TIP3      4339            0.0000000000
     35338      4532  TIP3      OH2            36.0272701447      -20.6845200927      -25.2597427977  TIP3      4340            0.0000000000
     35339      4532  TIP3      H1             35.6415899360      -20.8147613184      -26.1514605815  TIP3      4340            0.0000000000
     35340      4532  TIP3      H2             35.8345703774      -19.7158361649      -25.1988788241  TIP3      4340            0.0000000000
     35341      4533  TIP3      OH2           -24.6501760910       -7.6632416169      -35.8036259559  TIP3      4341            0.0000000000
     35342      4533  TIP3      H1            -24.8369171711       -6.7069638168      -35.9527810927  TIP3      4341            0.0000000000
     35343      4533  TIP3      H2            -25.4738079438       -8.0510522462      -36.1432049070  TIP3      4341            0.0000000000
     35344      4534  TIP3      OH2           -25.8560376976       -9.0325939899      -32.3153786030  TIP3      4342            0.0000000000
     35345      4534  TIP3      H1            -25.9109369293       -9.3761603707      -31.4002567243  TIP3      4342            0.0000000000
     35346      4534  TIP3      H2            -26.5109545904       -9.5539623784      -32.8043171775  TIP3      4342            0.0000000000
     35347      4535  TIP3      OH2           -33.4592129888       -8.6339581826      -30.3125706092  TIP3      4343            0.0000000000
     35348      4535  TIP3      H1            -33.3462381920       -9.5887425873      -30.3466071501  TIP3      4343            0.0000000000
     35349      4535  TIP3      H2            -32.5999104687       -8.3159471732      -30.6612440438  TIP3      4343            0.0000000000
     35350      4536  TIP3      OH2           -22.5970489678       -5.7155110316      -33.6706886538  TIP3      4344            0.0000000000
     35351      4536  TIP3      H1            -22.8754453731       -6.4305223161      -33.0800653820  TIP3      4344            0.0000000000
     35352      4536  TIP3      H2            -22.5848475671       -4.9649716895      -33.0571801317  TIP3      4344            0.0000000000
     35353      4537  TIP3      OH2           -32.8727661680       -4.4054287462      -32.4996172424  TIP3      4345            0.0000000000
     35354      4537  TIP3      H1            -33.1004293238       -5.3110381368      -32.7876290887  TIP3      4345            0.0000000000
     35355      4537  TIP3      H2            -31.9036972166       -4.5074613034      -32.5109524349  TIP3      4345            0.0000000000
     35356      4538  TIP3      OH2           -35.8682211474      -11.3746037409      -37.1532586812  TIP3      4346            0.0000000000
     35357      4538  TIP3      H1            -36.2452744919      -10.5461538884      -36.8350699417  TIP3      4346            0.0000000000
     35358      4538  TIP3      H2            -35.6862797733      -11.8536068998      -36.3245575553  TIP3      4346            0.0000000000
     35359      4539  TIP3      OH2           -35.6052941107       -9.0709698840      -34.7387366564  TIP3      4347            0.0000000000
     35360      4539  TIP3      H1            -35.2892159737       -9.9776029133      -34.5035351213  TIP3      4347            0.0000000000
     35361      4539  TIP3      H2            -35.0133557667       -8.7758720341      -35.4424331746  TIP3      4347            0.0000000000
     35362      4540  TIP3      OH2           -25.0282051660       -0.3068671982      -33.8780059961  TIP3      4348            0.0000000000
     35363      4540  TIP3      H1            -24.3851145087       -0.8402146857      -34.4121522458  TIP3      4348            0.0000000000
     35364      4540  TIP3      H2            -25.4108638358       -1.0242159412      -33.3585118720  TIP3      4348            0.0000000000
     35365      4541  TIP3      OH2           -27.7164460327       -6.4633738107      -31.4083550695  TIP3      4349            0.0000000000
     35366      4541  TIP3      H1            -27.2608376069       -6.5847387320      -32.2569840746  TIP3      4349            0.0000000000
     35367      4541  TIP3      H2            -26.9528327351       -6.2658761290      -30.8242099180  TIP3      4349            0.0000000000
     35368      4542  TIP3      OH2           -19.0896078220      -14.6614550674      -31.4738014973  TIP3      4350            0.0000000000
     35369      4542  TIP3      H1            -19.1060571590      -14.0758443608      -30.6982638568  TIP3      4350            0.0000000000
     35370      4542  TIP3      H2            -18.2851838192      -14.3590782538      -31.9243295204  TIP3      4350            0.0000000000
     35371      4543  TIP3      OH2           -24.1737965774      -11.6054794954      -31.2969897277  TIP3      4351            0.0000000000
     35372      4543  TIP3      H1            -23.9479756312      -12.5113520447      -31.0354870993  TIP3      4351            0.0000000000
     35373      4543  TIP3      H2            -24.4969270619      -11.7622991500      -32.2135454820  TIP3      4351            0.0000000000
     35374      4544  TIP3      OH2           -31.2433947549      -13.8484381195      -34.4283653490  TIP3      4352            0.0000000000
     35375      4544  TIP3      H1            -30.9824046602      -13.0117934466      -34.8579555582  TIP3      4352            0.0000000000
     35376      4544  TIP3      H2            -31.7057999892      -14.2838411365      -35.1808512320  TIP3      4352            0.0000000000
     35377      4545  TIP3      OH2           -23.6796275156      -13.5886419638      -35.9253574661  TIP3      4353            0.0000000000
     35378      4545  TIP3      H1            -23.1226926365      -13.9097198786      -35.1771682273  TIP3      4353            0.0000000000
     35379      4545  TIP3      H2            -23.0962134968      -12.9170412431      -36.3073884939  TIP3      4353            0.0000000000
     35380      4546  TIP3      OH2           -34.8687928543      -11.4476501230      -33.7208966097  TIP3      4354            0.0000000000
     35381      4546  TIP3      H1            -34.2947218018      -11.8634707885      -33.0512107099  TIP3      4354            0.0000000000
     35382      4546  TIP3      H2            -34.4453295918      -11.7632491572      -34.5455156824  TIP3      4354            0.0000000000
     35383      4547  TIP3      OH2           -30.1596667511       -9.5665101396      -34.1307709598  TIP3      4355            0.0000000000
     35384      4547  TIP3      H1            -29.3607027535       -9.9918594752      -33.7687586309  TIP3      4355            0.0000000000
     35385      4547  TIP3      H2            -30.3682338157      -10.2557890336      -34.8064019954  TIP3      4355            0.0000000000
     35386      4548  TIP3      OH2           -19.2591173715      -13.4207239888      -28.9767499825  TIP3      4356            0.0000000000
     35387      4548  TIP3      H1            -19.5241728398      -12.4939720721      -29.1969949433  TIP3      4356            0.0000000000
     35388      4548  TIP3      H2            -18.7061600771      -13.2587029237      -28.2011536285  TIP3      4356            0.0000000000
     35389      4549  TIP3      OH2           -32.5003837022      -14.5751424527      -30.1368610924  TIP3      4357            0.0000000000
     35390      4549  TIP3      H1            -32.9159244010      -14.1585958033      -30.9139653460  TIP3      4357            0.0000000000
     35391      4549  TIP3      H2            -33.2045378370      -14.4722609861      -29.4549491657  TIP3      4357            0.0000000000
     35392      4550  TIP3      OH2           -25.3933819558       -5.3162266758      -36.7524874278  TIP3      4358            0.0000000000
     35393      4550  TIP3      H1            -25.5175682364       -5.2926536667      -37.7196404949  TIP3      4358            0.0000000000
     35394      4550  TIP3      H2            -25.8997300427       -4.5142942562      -36.4676604708  TIP3      4358            0.0000000000
     35395      4551  TIP3      OH2           -30.0946517509       -6.9860173727      -30.2907074638  TIP3      4359            0.0000000000
     35396      4551  TIP3      H1            -30.5018932818       -6.1998424741      -29.8672646590  TIP3      4359            0.0000000000
     35397      4551  TIP3      H2            -29.3090532635       -6.5800660949      -30.7333482873  TIP3      4359            0.0000000000
     35398      4552  TIP3      OH2           -21.7412648316      -14.1805088142      -34.0434701040  TIP3      4360            0.0000000000
     35399      4552  TIP3      H1            -22.1393625710      -14.3014055253      -33.1575244227  TIP3      4360            0.0000000000
     35400      4552  TIP3      H2            -20.8466850283      -13.8784368962      -33.8223344361  TIP3      4360            0.0000000000
     35401      4553  TIP3      OH2           -33.0019205340      -12.8760164163      -32.2976393087  TIP3      4361            0.0000000000
     35402      4553  TIP3      H1            -32.3184425084      -12.3179401039      -31.8438810410  TIP3      4361            0.0000000000
     35403      4553  TIP3      H2            -32.4569343764      -13.2294819737      -33.0384772368  TIP3      4361            0.0000000000
     35404      4554  TIP3      OH2           -31.4458526774       -4.8121811690      -29.4074783554  TIP3      4362            0.0000000000
     35405      4554  TIP3      H1            -31.6516321199       -3.9410662629      -29.7749977242  TIP3      4362            0.0000000000
     35406      4554  TIP3      H2            -32.2601404608       -4.9558065842      -28.8707003186  TIP3      4362            0.0000000000
     35407      4555  TIP3      OH2           -35.9234016547       -5.2321193539      -38.3220615853  TIP3      4363            0.0000000000
     35408      4555  TIP3      H1            -35.7639646050       -4.8921237244      -39.2353285801  TIP3      4363            0.0000000000
     35409      4555  TIP3      H2            -35.3423926185       -4.6990777358      -37.7545535652  TIP3      4363            0.0000000000
     35410      4556  TIP3      OH2           -21.8423431865       -3.6193685337      -31.6185237868  TIP3      4364            0.0000000000
     35411      4556  TIP3      H1            -22.8082916769       -3.4872060838      -31.5010304523  TIP3      4364            0.0000000000
     35412      4556  TIP3      H2            -21.6246629388       -2.7349668966      -31.9703142540  TIP3      4364            0.0000000000
     35413      4557  TIP3      OH2           -21.7947123280      -15.6432517927      -30.6188718013  TIP3      4365            0.0000000000
     35414      4557  TIP3      H1            -22.3835193482      -15.4217868289      -31.3718910128  TIP3      4365            0.0000000000
     35415      4557  TIP3      H2            -20.9833128310      -15.1846056512      -30.8954909806  TIP3      4365            0.0000000000
     35416      4558  TIP3      OH2           -28.9792510801      -17.2436703557      -33.0643864988  TIP3      4366            0.0000000000
     35417      4558  TIP3      H1            -29.3028654278      -18.0776565342      -32.6945396468  TIP3      4366            0.0000000000
     35418      4558  TIP3      H2            -29.6858660039      -16.6385265285      -32.7103990624  TIP3      4366            0.0000000000
     35419      4559  TIP3      OH2           -23.4460027245       -1.8461543399      -35.2698806980  TIP3      4367            0.0000000000
     35420      4559  TIP3      H1            -23.1356263187       -2.6776139722      -35.6838569845  TIP3      4367            0.0000000000
     35421      4559  TIP3      H2            -22.6853859076       -1.2410928796      -35.4490306972  TIP3      4367            0.0000000000
     35422      4560  TIP3      OH2           -22.3847198909       -4.1430521281      -36.6701511554  TIP3      4368            0.0000000000
     35423      4560  TIP3      H1            -22.5905863645       -4.8006931651      -37.3533986571  TIP3      4368            0.0000000000
     35424      4560  TIP3      H2            -22.5944780581       -4.6533812130      -35.8697824009  TIP3      4368            0.0000000000
     35425      4561  TIP3      OH2           -20.9232530205       -5.4909102921      -27.9701180799  TIP3      4369            0.0000000000
     35426      4561  TIP3      H1            -20.7646608190       -6.2009676174      -28.6320507878  TIP3      4369            0.0000000000
     35427      4561  TIP3      H2            -20.7595132093       -4.6973342753      -28.5118797322  TIP3      4369            0.0000000000
     35428      4562  TIP3      OH2           -26.2688797297       -8.5315665241      -38.2741095060  TIP3      4370            0.0000000000
     35429      4562  TIP3      H1            -26.9539275744       -7.8421402671      -38.4410752574  TIP3      4370            0.0000000000
     35430      4562  TIP3      H2            -25.4406680859       -8.1255851502      -38.6113163327  TIP3      4370            0.0000000000
     35431      4563  TIP3      OH2           -26.2520569727       -9.3890635348      -41.0462744908  TIP3      4371            0.0000000000
     35432      4563  TIP3      H1            -25.7546479103       -9.1669699914      -40.2272583714  TIP3      4371            0.0000000000
     35433      4563  TIP3      H2            -25.7892682793      -10.1815001336      -41.3278094096  TIP3      4371            0.0000000000
     35434      4564  TIP3      OH2           -18.7215669786       -8.8684433729      -29.9589903514  TIP3      4372            0.0000000000
     35435      4564  TIP3      H1            -19.4500105845       -8.2180059510      -30.0574957366  TIP3      4372            0.0000000000
     35436      4564  TIP3      H2            -18.1469644077       -8.5335465020      -30.6760047786  TIP3      4372            0.0000000000
     35437      4565  TIP3      OH2           -22.3164764030       -8.2578941495      -37.0663760846  TIP3      4373            0.0000000000
     35438      4565  TIP3      H1            -23.0857434577       -8.0364963998      -36.4884509820  TIP3      4373            0.0000000000
     35439      4565  TIP3      H2            -21.7753905223       -8.8008843670      -36.4439112772  TIP3      4373            0.0000000000
     35440      4566  TIP3      OH2           -22.6791393569      -10.3041428304      -27.8138655808  TIP3      4374            0.0000000000
     35441      4566  TIP3      H1            -22.6675619687       -9.4282570818      -27.3827059970  TIP3      4374            0.0000000000
     35442      4566  TIP3      H2            -23.1538255583      -10.0979961951      -28.6351987305  TIP3      4374            0.0000000000
     35443      4567  TIP3      OH2           -31.4132222833       -7.6934972307      -35.5198975015  TIP3      4375            0.0000000000
     35444      4567  TIP3      H1            -31.4901011387       -8.2357759154      -36.3358481032  TIP3      4375            0.0000000000
     35445      4567  TIP3      H2            -30.9723581248       -8.3329618753      -34.9197564643  TIP3      4375            0.0000000000
     35446      4568  TIP3      OH2           -29.8913834728       -4.5001052057      -32.8642489671  TIP3      4376            0.0000000000
     35447      4568  TIP3      H1            -29.7764045515       -4.4165502654      -33.8302353497  TIP3      4376            0.0000000000
     35448      4568  TIP3      H2            -29.0590248172       -4.9021446693      -32.5598281928  TIP3      4376            0.0000000000
     35449      4569  TIP3      OH2           -31.1191121504       -8.9344549873      -31.6301047839  TIP3      4377            0.0000000000
     35450      4569  TIP3      H1            -30.7999231720       -8.9974110116      -32.5576420720  TIP3      4377            0.0000000000
     35451      4569  TIP3      H2            -30.4777844505       -8.3038676592      -31.2179437600  TIP3      4377            0.0000000000
     35452      4570  TIP3      OH2           -24.4351913492       -3.1580663811      -31.1125756622  TIP3      4378            0.0000000000
     35453      4570  TIP3      H1            -24.7046461451       -2.3969316727      -30.5741818372  TIP3      4378            0.0000000000
     35454      4570  TIP3      H2            -24.8563151658       -3.8766230287      -30.6113005852  TIP3      4378            0.0000000000
     35455      4571  TIP3      OH2           -30.0358004176       -4.7016493260      -27.1521433792  TIP3      4379            0.0000000000
     35456      4571  TIP3      H1            -30.6441983686       -4.0363550401      -26.7589931082  TIP3      4379            0.0000000000
     35457      4571  TIP3      H2            -30.4472596722       -4.8069657226      -28.0406217492  TIP3      4379            0.0000000000
     35458      4572  TIP3      OH2           -23.8575345289       -8.7074899543      -39.3129576676  TIP3      4380            0.0000000000
     35459      4572  TIP3      H1            -23.2399329739       -8.5249288705      -38.5706427463  TIP3      4380            0.0000000000
     35460      4572  TIP3      H2            -23.3812821375       -8.3517623709      -40.0998788235  TIP3      4380            0.0000000000
     35461      4573  TIP3      OH2           -32.5604746561       -8.4984429626      -27.4281298901  TIP3      4381            0.0000000000
     35462      4573  TIP3      H1            -32.6386458489       -7.7681028218      -26.7967359342  TIP3      4381            0.0000000000
     35463      4573  TIP3      H2            -33.5091226069       -8.7293252895      -27.5048061430  TIP3      4381            0.0000000000
     35464      4574  TIP3      OH2           -26.4606338561       -2.9815758981      -35.8989103701  TIP3      4382            0.0000000000
     35465      4574  TIP3      H1            -25.9755763779       -2.3798836935      -35.3205624912  TIP3      4382            0.0000000000
     35466      4574  TIP3      H2            -26.8328889169       -2.3896700364      -36.5687838756  TIP3      4382            0.0000000000
     35467      4575  TIP3      OH2           -31.4907349811       -2.6821286539      -26.1763900737  TIP3      4383            0.0000000000
     35468      4575  TIP3      H1            -31.5652794416       -2.0436310347      -26.9235834271  TIP3      4383            0.0000000000
     35469      4575  TIP3      H2            -32.3932824474       -2.6852002571      -25.8036726730  TIP3      4383            0.0000000000
     35470      4576  TIP3      OH2           -19.8574734967      -17.4987546111      -39.1653785383  TIP3      4384            0.0000000000
     35471      4576  TIP3      H1            -20.8451943860      -17.4801649217      -39.1988792445  TIP3      4384            0.0000000000
     35472      4576  TIP3      H2            -19.6415412670      -16.7108025653      -39.6958648033  TIP3      4384            0.0000000000
     35473      4577  TIP3      OH2           -32.3192408058       -8.9638088261      -37.7969429582  TIP3      4385            0.0000000000
     35474      4577  TIP3      H1            -32.6483074403       -8.1393926209      -38.2033013228  TIP3      4385            0.0000000000
     35475      4577  TIP3      H2            -32.9725257427       -9.6075858565      -38.0952388733  TIP3      4385            0.0000000000
     35476      4578  TIP3      OH2           -19.2064069124       -3.0989618613      -41.5299309480  TIP3      4386            0.0000000000
     35477      4578  TIP3      H1            -18.9201117289       -2.1907002882      -41.3263429228  TIP3      4386            0.0000000000
     35478      4578  TIP3      H2            -18.3554138574       -3.5646316478      -41.4175944033  TIP3      4386            0.0000000000
     35479      4579  TIP3      OH2           -35.6267163570       -5.4682782764      -29.2125553127  TIP3      4387            0.0000000000
     35480      4579  TIP3      H1            -36.0589572496       -4.7589215135      -29.7294945979  TIP3      4387            0.0000000000
     35481      4579  TIP3      H2            -36.2863335024       -5.5102611610      -28.4997245304  TIP3      4387            0.0000000000
     35482      4580  TIP3      OH2           -35.3961603116       -3.3573675413      -32.3734943415  TIP3      4388            0.0000000000
     35483      4580  TIP3      H1            -34.5716367462       -3.8504824846      -32.6016726208  TIP3      4388            0.0000000000
     35484      4580  TIP3      H2            -35.0584264557       -2.8952750072      -31.5830113476  TIP3      4388            0.0000000000
     35485      4581  TIP3      OH2           -18.1654341456       -2.9368388620      -26.5426984339  TIP3      4389            0.0000000000
     35486      4581  TIP3      H1            -18.3198820117       -3.8746406554      -26.7558823646  TIP3      4389            0.0000000000
     35487      4581  TIP3      H2            -18.9906428054       -2.7557826661      -26.0477112170  TIP3      4389            0.0000000000
     35488      4582  TIP3      OH2           -27.1534133590       -3.3761088669      -27.6469618409  TIP3      4390            0.0000000000
     35489      4582  TIP3      H1            -27.0671589275       -2.6831143937      -26.9664821512  TIP3      4390            0.0000000000
     35490      4582  TIP3      H2            -28.0602265519       -3.7182231810      -27.5323556747  TIP3      4390            0.0000000000
     35491      4583  TIP3      OH2           -26.6979652362        0.4146130075      -38.0346910389  TIP3      4391            0.0000000000
     35492      4583  TIP3      H1            -26.7362078897        0.5494457484      -39.0038446232  TIP3      4391            0.0000000000
     35493      4583  TIP3      H2            -26.6755705201        1.3347984611      -37.6921603791  TIP3      4391            0.0000000000
     35494      4584  TIP3      OH2           -32.9064542160       -0.6140078741      -35.9285612098  TIP3      4392            0.0000000000
     35495      4584  TIP3      H1            -32.7329100256       -1.0133567522      -35.0533185436  TIP3      4392            0.0000000000
     35496      4584  TIP3      H2            -33.6978389921       -1.1010618890      -36.2431796157  TIP3      4392            0.0000000000
     35497      4585  TIP3      OH2           -23.6072468579       -0.0978070967      -40.7816632502  TIP3      4393            0.0000000000
     35498      4585  TIP3      H1            -23.0537857754       -0.8450416963      -41.0617920476  TIP3      4393            0.0000000000
     35499      4585  TIP3      H2            -23.5205154880       -0.1578151242      -39.8088841593  TIP3      4393            0.0000000000
     35500      4586  TIP3      OH2           -23.9622942524       -0.3048964961      -38.0290685746  TIP3      4394            0.0000000000
     35501      4586  TIP3      H1            -24.9166945708       -0.0885139453      -37.9876073157  TIP3      4394            0.0000000000
     35502      4586  TIP3      H2            -23.9691992465       -1.1731240100      -37.5993620985  TIP3      4394            0.0000000000
     35503      4587  TIP3      OH2           -20.7868585944      -11.5598850876      -26.3571376329  TIP3      4395            0.0000000000
     35504      4587  TIP3      H1            -21.6465320321      -11.2219685577      -26.6728080463  TIP3      4395            0.0000000000
     35505      4587  TIP3      H2            -21.0363439284      -12.4324742660      -26.0038832892  TIP3      4395            0.0000000000
     35506      4588  TIP3      OH2           -33.5405206968       -4.5716710705      -27.8036100251  TIP3      4396            0.0000000000
     35507      4588  TIP3      H1            -33.6380825897       -5.0473861694      -26.9446750956  TIP3      4396            0.0000000000
     35508      4588  TIP3      H2            -34.3413554344       -4.8950197075      -28.2614984908  TIP3      4396            0.0000000000
     35509      4589  TIP3      OH2           -31.0758412612      -16.0187456249      -32.0206796385  TIP3      4397            0.0000000000
     35510      4589  TIP3      H1            -31.8972577739      -15.9695225708      -32.5405288386  TIP3      4397            0.0000000000
     35511      4589  TIP3      H2            -31.2195701824      -15.2959888395      -31.3855785256  TIP3      4397            0.0000000000
     35512      4590  TIP3      OH2           -26.2101180654      -16.8182241416      -28.8327500049  TIP3      4398            0.0000000000
     35513      4590  TIP3      H1            -25.8447934723      -17.1881039205      -28.0100587951  TIP3      4398            0.0000000000
     35514      4590  TIP3      H2            -27.1748894693      -16.8289067258      -28.6998547225  TIP3      4398            0.0000000000
     35515      4591  TIP3      OH2           -23.5400451056      -12.8866287350      -27.9440720931  TIP3      4399            0.0000000000
     35516      4591  TIP3      H1            -24.1162519389      -13.1109329225      -27.1739862472  TIP3      4399            0.0000000000
     35517      4591  TIP3      H2            -23.2213756107      -11.9931067888      -27.7033544323  TIP3      4399            0.0000000000
     35518      4592  TIP3      OH2           -22.5813796655       -7.8338982262      -41.4465678652  TIP3      4400            0.0000000000
     35519      4592  TIP3      H1            -22.5521809667       -7.7991074040      -42.4131571533  TIP3      4400            0.0000000000
     35520      4592  TIP3      H2            -21.7203501321       -7.4206817132      -41.2573482452  TIP3      4400            0.0000000000
     35521      4593  TIP3      OH2           -26.6891011868      -13.8394106325      -41.0782215410  TIP3      4401            0.0000000000
     35522      4593  TIP3      H1            -27.2974718503      -13.7902022553      -40.3197188653  TIP3      4401            0.0000000000
     35523      4593  TIP3      H2            -26.9661919583      -14.6844206089      -41.4592932737  TIP3      4401            0.0000000000
     35524      4594  TIP3      OH2           -31.0779351235      -11.5351662538      -30.9790344983  TIP3      4402            0.0000000000
     35525      4594  TIP3      H1            -31.2346371427      -11.3652648048      -30.0266753671  TIP3      4402            0.0000000000
     35526      4594  TIP3      H2            -31.0805687150      -10.6046486761      -31.2854717428  TIP3      4402            0.0000000000
     35527      4595  TIP3      OH2           -30.8365775600      -11.5787422818      -35.8426409331  TIP3      4403            0.0000000000
     35528      4595  TIP3      H1            -31.8104036766      -11.5597848793      -36.0001528137  TIP3      4403            0.0000000000
     35529      4595  TIP3      H2            -30.5233388144      -11.9334976814      -36.6997700784  TIP3      4403            0.0000000000
     35530      4596  TIP3      OH2           -25.4561041411      -10.7499578263      -37.0582034188  TIP3      4404            0.0000000000
     35531      4596  TIP3      H1            -25.7577036597       -9.9122534630      -37.4895104233  TIP3      4404            0.0000000000
     35532      4596  TIP3      H2            -24.8774788091      -11.0986902386      -37.7630914886  TIP3      4404            0.0000000000
     35533      4597  TIP3      OH2           -26.4678482122      -10.5919367399      -25.6021187833  TIP3      4405            0.0000000000
     35534      4597  TIP3      H1            -26.9478335344      -11.3283292762      -25.1849037613  TIP3      4405            0.0000000000
     35535      4597  TIP3      H2            -25.6536799619      -10.5625054155      -25.0729639348  TIP3      4405            0.0000000000
     35536      4598  TIP3      OH2           -24.7110896025      -11.3267988865      -33.9821507337  TIP3      4406            0.0000000000
     35537      4598  TIP3      H1            -24.6854905739      -10.4517826376      -34.4078092007  TIP3      4406            0.0000000000
     35538      4598  TIP3      H2            -24.5527803873      -11.8975762126      -34.7534979360  TIP3      4406            0.0000000000
     35539      4599  TIP3      OH2           -34.0530600121      -11.4498778036      -29.5326959567  TIP3      4407            0.0000000000
     35540      4599  TIP3      H1            -33.7111091380      -11.1084751412      -28.6870089853  TIP3      4407            0.0000000000
     35541      4599  TIP3      H2            -33.9611484213      -12.4052893892      -29.3892383098  TIP3      4407            0.0000000000
     35542      4600  TIP3      OH2           -30.0674217072      -13.5260408324      -41.7940103865  TIP3      4408            0.0000000000
     35543      4600  TIP3      H1            -30.3417811647      -14.0846034323      -41.0450394686  TIP3      4408            0.0000000000
     35544      4600  TIP3      H2            -30.3594625240      -12.6333625196      -41.5203541856  TIP3      4408            0.0000000000
     35545      4601  TIP3      OH2           -36.1350077490      -13.6444302007      -35.1399228319  TIP3      4409            0.0000000000
     35546      4601  TIP3      H1            -35.8017235892      -13.9432760002      -34.2722264791  TIP3      4409            0.0000000000
     35547      4601  TIP3      H2            -36.1236784348      -14.4585390739      -35.6616658107  TIP3      4409            0.0000000000
     35548      4602  TIP3      OH2           -35.1212482685      -12.7930201512      -39.7204099948  TIP3      4410            0.0000000000
     35549      4602  TIP3      H1            -34.8066464841      -13.1777958647      -40.5631418083  TIP3      4410            0.0000000000
     35550      4602  TIP3      H2            -35.8677334334      -12.2419694945      -40.0477765728  TIP3      4410            0.0000000000
     35551      4603  TIP3      OH2           -25.5601091434       -9.9391510261      -29.6130416148  TIP3      4411            0.0000000000
     35552      4603  TIP3      H1            -24.9707857545      -10.5392202155      -30.1071134171  TIP3      4411            0.0000000000
     35553      4603  TIP3      H2            -26.1476077302      -10.5505796484      -29.1280006238  TIP3      4411            0.0000000000
     35554      4604  TIP3      OH2           -28.1042572906      -14.0082041684      -34.9570234550  TIP3      4412            0.0000000000
     35555      4604  TIP3      H1            -29.0315592596      -14.0779982675      -34.6710340108  TIP3      4412            0.0000000000
     35556      4604  TIP3      H2            -27.6268003322      -14.2375383004      -34.1367530879  TIP3      4412            0.0000000000
     35557      4605  TIP3      OH2           -33.4929622162      -12.1133337658      -36.0991060593  TIP3      4413            0.0000000000
     35558      4605  TIP3      H1            -33.9572176469      -11.9814413168      -36.9483248441  TIP3      4413            0.0000000000
     35559      4605  TIP3      H2            -33.2365206141      -13.0637090968      -36.1636950761  TIP3      4413            0.0000000000
     35560      4606  TIP3      OH2           -30.4700857110      -12.2528232499      -38.4345836948  TIP3      4414            0.0000000000
     35561      4606  TIP3      H1            -29.5207063108      -12.1600216908      -38.2478419107  TIP3      4414            0.0000000000
     35562      4606  TIP3      H2            -30.6052962734      -11.6315493030      -39.1830299813  TIP3      4414            0.0000000000
     35563      4607  TIP3      OH2           -23.7712891091      -14.5864156547      -32.1352432998  TIP3      4415            0.0000000000
     35564      4607  TIP3      H1            -24.4028415571      -14.5575297161      -31.4026994476  TIP3      4415            0.0000000000
     35565      4607  TIP3      H2            -24.0934670930      -15.3388740997      -32.6727831032  TIP3      4415            0.0000000000
     35566      4608  TIP3      OH2           -30.9572042580      -11.1619018458      -40.9315348806  TIP3      4416            0.0000000000
     35567      4608  TIP3      H1            -31.5975251628      -11.1249704241      -41.6609827158  TIP3      4416            0.0000000000
     35568      4608  TIP3      H2            -30.1982636946      -10.6601116761      -41.3158804261  TIP3      4416            0.0000000000
     35569      4609  TIP3      OH2           -21.1696640117        0.8831809048      -25.0455872635  TIP3      4417            0.0000000000
     35570      4609  TIP3      H1            -20.9239329586        1.5187569256      -25.7417455372  TIP3      4417            0.0000000000
     35571      4609  TIP3      H2            -20.5266475545        1.0925727035      -24.3597576624  TIP3      4417            0.0000000000
     35572      4610  TIP3      OH2           -33.4152313307       -6.3798841430      -25.9066488127  TIP3      4418            0.0000000000
     35573      4610  TIP3      H1            -32.5737639663       -6.1902685881      -25.4700705635  TIP3      4418            0.0000000000
     35574      4610  TIP3      H2            -34.0185958201       -6.6551672114      -25.1744254275  TIP3      4418            0.0000000000
     35575      4611  TIP3      OH2           -27.5790782410      -11.4165638033      -33.2857620644  TIP3      4419            0.0000000000
     35576      4611  TIP3      H1            -26.6455283336      -11.5157924347      -33.5533764636  TIP3      4419            0.0000000000
     35577      4611  TIP3      H2            -27.7368693436      -12.1828705550      -32.7210460522  TIP3      4419            0.0000000000
     35578      4612  TIP3      OH2           -32.8645557530      -14.7481568082      -36.4105195810  TIP3      4420            0.0000000000
     35579      4612  TIP3      H1            -33.4026939222      -15.4811701114      -36.0293471485  TIP3      4420            0.0000000000
     35580      4612  TIP3      H2            -32.6494482408      -15.1317103671      -37.2748113428  TIP3      4420            0.0000000000
     35581      4613  TIP3      OH2           -28.9062499111      -12.9387336388      -30.3325282592  TIP3      4421            0.0000000000
     35582      4613  TIP3      H1            -29.5877751825      -12.2756128138      -30.5727366725  TIP3      4421            0.0000000000
     35583      4613  TIP3      H2            -28.1707538610      -12.3987873805      -30.0057849975  TIP3      4421            0.0000000000
     35584      4614  TIP3      OH2           -28.0213000002       -6.4990844816      -38.5149333843  TIP3      4422            0.0000000000
     35585      4614  TIP3      H1            -28.7434474574       -7.0414213753      -38.9125617568  TIP3      4422            0.0000000000
     35586      4614  TIP3      H2            -28.4288329140       -6.2549947654      -37.6460958415  TIP3      4422            0.0000000000
     35587      4615  TIP3      OH2           -20.6301423502       -6.9570410054      -30.2169812585  TIP3      4423            0.0000000000
     35588      4615  TIP3      H1            -20.1541295427       -6.3082806278      -30.7957495397  TIP3      4423            0.0000000000
     35589      4615  TIP3      H2            -21.4329880814       -7.1081072098      -30.7423138699  TIP3      4423            0.0000000000
     35590      4616  TIP3      OH2           -24.1014654914      -13.5572816418      -40.7296998053  TIP3      4424            0.0000000000
     35591      4616  TIP3      H1            -25.0680370540      -13.5804534821      -40.8888341051  TIP3      4424            0.0000000000
     35592      4616  TIP3      H2            -24.0126794013      -12.7109040041      -40.2512685635  TIP3      4424            0.0000000000
     35593      4617  TIP3      OH2           -27.0277418946       -6.1637487846      -27.6618785021  TIP3      4425            0.0000000000
     35594      4617  TIP3      H1            -27.4591850973       -6.5948406335      -26.9070958126  TIP3      4425            0.0000000000
     35595      4617  TIP3      H2            -26.9777130154       -5.2410199539      -27.3647148840  TIP3      4425            0.0000000000
     35596      4618  TIP3      OH2           -23.5531200871      -11.4504417243      -38.9621721912  TIP3      4426            0.0000000000
     35597      4618  TIP3      H1            -22.9087540556      -11.7604038651      -38.2946896427  TIP3      4426            0.0000000000
     35598      4618  TIP3      H2            -23.2006968274      -10.5712916560      -39.1791522826  TIP3      4426            0.0000000000
     35599      4619  TIP3      OH2           -33.0429636644       -6.9659281269      -33.3421907549  TIP3      4427            0.0000000000
     35600      4619  TIP3      H1            -32.6854163946       -6.9726509778      -34.2510641581  TIP3      4427            0.0000000000
     35601      4619  TIP3      H2            -32.5702647309       -7.7197900063      -32.9579134065  TIP3      4427            0.0000000000
     35602      4620  TIP3      OH2           -25.9402647688       -5.1664979749      -39.6007150994  TIP3      4428            0.0000000000
     35603      4620  TIP3      H1            -26.3395699298       -4.2913880802      -39.3706068749  TIP3      4428            0.0000000000
     35604      4620  TIP3      H2            -26.6771321220       -5.7621448383      -39.3268174678  TIP3      4428            0.0000000000
     35605      4621  TIP3      OH2           -35.2247595652       -9.2504732885      -27.2656011993  TIP3      4429            0.0000000000
     35606      4621  TIP3      H1            -35.1481657563       -9.2268578325      -26.2732260923  TIP3      4429            0.0000000000
     35607      4621  TIP3      H2            -35.5946995766      -10.1464210367      -27.3906146184  TIP3      4429            0.0000000000
     35608      4622  TIP3      OH2           -28.7442296281       -8.9861403963      -26.0496751251  TIP3      4430            0.0000000000
     35609      4622  TIP3      H1            -29.1783367169       -9.8306436064      -26.2170141119  TIP3      4430            0.0000000000
     35610      4622  TIP3      H2            -27.8565116414       -9.2929819991      -25.7827274929  TIP3      4430            0.0000000000
     35611      4623  TIP3      OH2           -24.1159538151       -3.8187169311      -27.3913532120  TIP3      4431            0.0000000000
     35612      4623  TIP3      H1            -24.9619638974       -3.5604873031      -27.7893738271  TIP3      4431            0.0000000000
     35613      4623  TIP3      H2            -24.2581532271       -3.4301731089      -26.5060119556  TIP3      4431            0.0000000000
     35614      4624  TIP3      OH2           -18.6392733504      -11.6233092064      -39.1845339064  TIP3      4432            0.0000000000
     35615      4624  TIP3      H1            -19.3352247214      -11.6858461418      -39.8748097897  TIP3      4432            0.0000000000
     35616      4624  TIP3      H2            -18.4643233955      -10.6586328561      -39.2431690384  TIP3      4432            0.0000000000
     35617      4625  TIP3      OH2           -18.4757245645       -5.7389922018      -26.8038878065  TIP3      4433            0.0000000000
     35618      4625  TIP3      H1            -19.3949037073       -5.7052793684      -27.1602109318  TIP3      4433            0.0000000000
     35619      4625  TIP3      H2            -17.9490031243       -5.7319419383      -27.6397723665  TIP3      4433            0.0000000000
     35620      4626  TIP3      OH2           -20.3888127302       -2.8581229756      -38.9698865678  TIP3      4434            0.0000000000
     35621      4626  TIP3      H1            -20.6735641944       -3.7052406350      -38.6032970197  TIP3      4434            0.0000000000
     35622      4626  TIP3      H2            -20.1726955970       -3.0408257137      -39.9029708784  TIP3      4434            0.0000000000
     35623      4627  TIP3      OH2           -23.0652171493       -7.8709456677      -31.8385414892  TIP3      4435            0.0000000000
     35624      4627  TIP3      H1            -23.9764956139       -8.1265998982      -32.0771702301  TIP3      4435            0.0000000000
     35625      4627  TIP3      H2            -22.5772467033       -8.6050277791      -32.2510459355  TIP3      4435            0.0000000000
     35626      4628  TIP3      OH2           -30.6457179555       -3.5862755015      -35.7168743469  TIP3      4436            0.0000000000
     35627      4628  TIP3      H1            -30.5316927167       -2.6596210088      -36.0344673511  TIP3      4436            0.0000000000
     35628      4628  TIP3      H2            -31.5565472093       -3.7659524991      -35.9799969024  TIP3      4436            0.0000000000
     35629      4629  TIP3      OH2           -35.2186988517       -8.9299653113      -40.8201389041  TIP3      4437            0.0000000000
     35630      4629  TIP3      H1            -34.5001331048       -8.2757701141      -40.7574636821  TIP3      4437            0.0000000000
     35631      4629  TIP3      H2            -35.6997880182       -8.7463418581      -40.0068095310  TIP3      4437            0.0000000000
     35632      4630  TIP3      OH2           -29.1980357296       -5.8085501287      -36.1001272647  TIP3      4438            0.0000000000
     35633      4630  TIP3      H1            -29.5826728325       -4.9091633784      -36.0267247096  TIP3      4438            0.0000000000
     35634      4630  TIP3      H2            -29.8754267044       -6.3383597761      -35.6535881930  TIP3      4438            0.0000000000
     35635      4631  TIP3      OH2           -28.5396986461       -1.6914435787      -29.3431845615  TIP3      4439            0.0000000000
     35636      4631  TIP3      H1            -27.9273023573       -1.0184690169      -29.6890703453  TIP3      4439            0.0000000000
     35637      4631  TIP3      H2            -27.9677891621       -2.1498073986      -28.6908978873  TIP3      4439            0.0000000000
     35638      4632  TIP3      OH2           -30.2562194603       -1.0174285743      -36.6146801449  TIP3      4440            0.0000000000
     35639      4632  TIP3      H1            -31.2126257797       -0.8444217927      -36.4719062463  TIP3      4440            0.0000000000
     35640      4632  TIP3      H2            -29.9387226328       -0.1720924797      -36.2322810922  TIP3      4440            0.0000000000
     35641      4633  TIP3      OH2           -25.4687771385       -5.8473970562      -30.1405228413  TIP3      4441            0.0000000000
     35642      4633  TIP3      H1            -25.8524108704       -6.1630981459      -29.2849286180  TIP3      4441            0.0000000000
     35643      4633  TIP3      H2            -24.6871031617       -6.4165441668      -30.2633974191  TIP3      4441            0.0000000000
     35644      4634  TIP3      OH2           -22.8214562074       -4.4715719380      -40.5960880383  TIP3      4442            0.0000000000
     35645      4634  TIP3      H1            -22.5900689145       -5.0723866029      -39.8562773762  TIP3      4442            0.0000000000
     35646      4634  TIP3      H2            -23.7652958338       -4.6904233337      -40.6499458102  TIP3      4442            0.0000000000
     35647      4635  TIP3      OH2           -22.1364581614       -1.4298820318      -27.8242917669  TIP3      4443            0.0000000000
     35648      4635  TIP3      H1            -23.0319947171       -1.7949978545      -27.9593010133  TIP3      4443            0.0000000000
     35649      4635  TIP3      H2            -22.0696551055       -0.7447733613      -28.5325104232  TIP3      4443            0.0000000000
     35650      4636  TIP3      OH2           -18.4388940626       -0.3821463705      -40.6189919369  TIP3      4444            0.0000000000
     35651      4636  TIP3      H1            -18.0223814503        0.3137280332      -41.1582535537  TIP3      4444            0.0000000000
     35652      4636  TIP3      H2            -19.1411290480        0.1404746724      -40.1715425278  TIP3      4444            0.0000000000
     35653      4637  TIP3      OH2           -34.3430448330      -14.1932667582      -28.1634409017  TIP3      4445            0.0000000000
     35654      4637  TIP3      H1            -34.7504906242      -13.6695886801      -27.4566408982  TIP3      4445            0.0000000000
     35655      4637  TIP3      H2            -34.5615486760      -15.1051636638      -27.8965136567  TIP3      4445            0.0000000000
     35656      4638  TIP3      OH2           -22.0291320271       -6.1196465934      -38.6231376394  TIP3      4446            0.0000000000
     35657      4638  TIP3      H1            -22.1678636938       -6.9440081306      -38.1037804086  TIP3      4446            0.0000000000
     35658      4638  TIP3      H2            -21.0573585207       -6.0585003560      -38.5593530514  TIP3      4446            0.0000000000
     35659      4639  TIP3      OH2           -34.4754872530       -2.1093836452      -30.1204949773  TIP3      4447            0.0000000000
     35660      4639  TIP3      H1            -33.8596620070       -2.7604549053      -29.7416460884  TIP3      4447            0.0000000000
     35661      4639  TIP3      H2            -35.1356084112       -1.9913782273      -29.4230702999  TIP3      4447            0.0000000000
     35662      4640  TIP3      OH2           -29.9567651299       -4.1675461739      -40.1293220816  TIP3      4448            0.0000000000
     35663      4640  TIP3      H1            -29.3892036168       -4.7807190804      -39.6299239778  TIP3      4448            0.0000000000
     35664      4640  TIP3      H2            -29.7301259260       -3.2928208812      -39.7354737011  TIP3      4448            0.0000000000
     35665      4641  TIP3      OH2           -33.7074361799       -6.9466191896      -39.5563961334  TIP3      4449            0.0000000000
     35666      4641  TIP3      H1            -34.4625404698       -6.4177022725      -39.2362067634  TIP3      4449            0.0000000000
     35667      4641  TIP3      H2            -33.1748913410       -6.2761505353      -40.0306006627  TIP3      4449            0.0000000000
     35668      4642  TIP3      OH2           -25.5262984880      -13.9918835482      -29.3976770108  TIP3      4450            0.0000000000
     35669      4642  TIP3      H1            -24.7483482175      -13.6513145476      -28.9156446714  TIP3      4450            0.0000000000
     35670      4642  TIP3      H2            -25.7757935235      -14.7871240611      -28.8872301233  TIP3      4450            0.0000000000
     35671      4643  TIP3      OH2           -24.9237533792      -14.5882248584      -38.2444123936  TIP3      4451            0.0000000000
     35672      4643  TIP3      H1            -24.4052864700      -14.2695520906      -39.0037641262  TIP3      4451            0.0000000000
     35673      4643  TIP3      H2            -24.3235493082      -14.4277763798      -37.4906541558  TIP3      4451            0.0000000000
     35674      4644  TIP3      OH2           -26.8699247520       -2.6932162410      -39.0651490277  TIP3      4452            0.0000000000
     35675      4644  TIP3      H1            -27.7112319075       -2.1960187851      -39.0817840264  TIP3      4452            0.0000000000
     35676      4644  TIP3      H2            -26.4020872869       -2.3311243753      -39.8536399530  TIP3      4452            0.0000000000
     35677      4645  TIP3      OH2           -27.6232828875      -12.5869780870      -37.2262262006  TIP3      4453            0.0000000000
     35678      4645  TIP3      H1            -26.9251076729      -11.9232673862      -37.0230196613  TIP3      4453            0.0000000000
     35679      4645  TIP3      H2            -27.8489313855      -12.9852863277      -36.3594074342  TIP3      4453            0.0000000000
     35680      4646  TIP3      OH2           -27.1413811031      -11.7097382619      -27.9803394955  TIP3      4454            0.0000000000
     35681      4646  TIP3      H1            -26.9051227292      -11.1723311932      -27.1929475958  TIP3      4454            0.0000000000
     35682      4646  TIP3      H2            -26.4831530305      -12.4134861078      -27.9883419862  TIP3      4454            0.0000000000
     35683      4647  TIP3      OH2           -26.8820807147      -15.9686827491      -36.8343939532  TIP3      4455            0.0000000000
     35684      4647  TIP3      H1            -27.2576681021      -15.3371367958      -36.1857058949  TIP3      4455            0.0000000000
     35685      4647  TIP3      H2            -26.1557218615      -15.4203744100      -37.2217904719  TIP3      4455            0.0000000000
     35686      4648  TIP3      OH2           -29.4570012174       -1.7401062657      -39.2013746980  TIP3      4456            0.0000000000
     35687      4648  TIP3      H1            -29.2046047970       -0.9025316941      -39.6525261328  TIP3      4456            0.0000000000
     35688      4648  TIP3      H2            -29.9481563133       -1.3388565628      -38.4508880068  TIP3      4456            0.0000000000
     35689      4649  TIP3      OH2           -31.3414381319      -14.8364964062      -39.5824903606  TIP3      4457            0.0000000000
     35690      4649  TIP3      H1            -31.3907391848      -13.9537192290      -39.1752268586  TIP3      4457            0.0000000000
     35691      4649  TIP3      H2            -30.4610305585      -15.0980396777      -39.2555361071  TIP3      4457            0.0000000000
     35692      4650  TIP3      OH2           -21.1228539228      -14.2412580579      -27.0273308027  TIP3      4458            0.0000000000
     35693      4650  TIP3      H1            -22.0315979452      -14.0082345246      -27.2965458715  TIP3      4458            0.0000000000
     35694      4650  TIP3      H2            -20.6101771031      -13.9839866392      -27.8256678486  TIP3      4458            0.0000000000
     35695      4651  TIP3      OH2           -22.1174972915      -10.3048560103      -33.2003705899  TIP3      4459            0.0000000000
     35696      4651  TIP3      H1            -22.8468420721      -10.8287148478      -32.8366702832  TIP3      4459            0.0000000000
     35697      4651  TIP3      H2            -21.3567850809      -10.7514560488      -32.7675196067  TIP3      4459            0.0000000000
     35698      4652  TIP3      OH2           -32.8144851505       -4.4367575618      -40.8263895163  TIP3      4460            0.0000000000
     35699      4652  TIP3      H1            -32.0869866916       -3.9410003802      -40.4252581764  TIP3      4460            0.0000000000
     35700      4652  TIP3      H2            -32.2962580060       -5.0763034321      -41.3670402251  TIP3      4460            0.0000000000
     35701      4653  TIP3      OH2           -34.2433242113      -11.5924916936      -42.0522956279  TIP3      4461            0.0000000000
     35702      4653  TIP3      H1            -34.1754737720      -10.7869955353      -41.5231406217  TIP3      4461            0.0000000000
     35703      4653  TIP3      H2            -35.1441923813      -11.8685599224      -41.8167804995  TIP3      4461            0.0000000000
     35704      4654  TIP3      OH2           -21.2071398891       -0.9021535007      -31.7533602593  TIP3      4462            0.0000000000
     35705      4654  TIP3      H1            -21.1807736107       -0.1564700750      -32.3842193544  TIP3      4462            0.0000000000
     35706      4654  TIP3      H2            -20.2450908753       -1.0610830418      -31.6826786279  TIP3      4462            0.0000000000
     35707      4655  TIP3      OH2           -33.5612289930      -16.7449417212      -32.8525577219  TIP3      4463            0.0000000000
     35708      4655  TIP3      H1            -33.7715441077      -17.0362749966      -33.7683162776  TIP3      4463            0.0000000000
     35709      4655  TIP3      H2            -33.5871499185      -17.5974753739      -32.3607506271  TIP3      4463            0.0000000000
     35710      4656  TIP3      OH2           -34.4187325767       -2.7442876581      -36.5745999964  TIP3      4464            0.0000000000
     35711      4656  TIP3      H1            -35.3519583149       -2.8307202954      -36.3755352291  TIP3      4464            0.0000000000
     35712      4656  TIP3      H2            -34.4515485018       -2.3755255372      -37.4847750756  TIP3      4464            0.0000000000
     35713      4657  TIP3      OH2           -35.4505683103        0.0467861111      -24.8502806962  TIP3      4465            0.0000000000
     35714      4657  TIP3      H1            -34.9801742206       -0.1854092994      -24.0272958124  TIP3      4465            0.0000000000
     35715      4657  TIP3      H2            -35.3766420423       -0.8037411370      -25.3112683282  TIP3      4465            0.0000000000
     35716      4658  TIP3      OH2           -30.9012148570       -1.3167180943      -23.8872476797  TIP3      4466            0.0000000000
     35717      4658  TIP3      H1            -30.0359198891       -1.6765720413      -23.6238538182  TIP3      4466            0.0000000000
     35718      4658  TIP3      H2            -30.9660295211       -1.5962438136      -24.8219866054  TIP3      4466            0.0000000000
     35719      4659  TIP3      OH2           -25.9692620956       -1.6674388356      -41.4498098681  TIP3      4467            0.0000000000
     35720      4659  TIP3      H1            -26.5917603349       -2.0411883268      -42.1101903946  TIP3      4467            0.0000000000
     35721      4659  TIP3      H2            -25.2150246143       -1.4336434799      -42.0199159674  TIP3      4467            0.0000000000
     35722      4660  TIP3      OH2           -24.6179971980       -2.4345620584      -25.1312478754  TIP3      4468            0.0000000000
     35723      4660  TIP3      H1            -24.7956444582       -3.3460398889      -24.7748536852  TIP3      4468            0.0000000000
     35724      4660  TIP3      H2            -23.7339066926       -2.2560187577      -24.7423854165  TIP3      4468            0.0000000000
     35725      4661  TIP3      OH2           -21.8626255783       -2.0545625834      -42.2701191395  TIP3      4469            0.0000000000
     35726      4661  TIP3      H1            -22.0806858263       -2.8402213235      -41.7224964340  TIP3      4469            0.0000000000
     35727      4661  TIP3      H2            -20.8968737555       -2.1285106897      -42.3149707186  TIP3      4469            0.0000000000
     35728      4662  TIP3      OH2           -35.5203841622       -6.6003509359      -24.2537465394  TIP3      4470            0.0000000000
     35729      4662  TIP3      H1            -35.9321178427       -7.3772038382      -24.6778324132  TIP3      4470            0.0000000000
     35730      4662  TIP3      H2            -36.3252838647       -6.0844245786      -24.0096633748  TIP3      4470            0.0000000000
     35731      4663  TIP3      OH2           -31.2285972904       -6.4093974990      -41.8781837327  TIP3      4471            0.0000000000
     35732      4663  TIP3      H1            -30.5103252509       -6.4420837137      -41.2130461567  TIP3      4471            0.0000000000
     35733      4663  TIP3      H2            -30.7122874154       -6.5291096892      -42.6948098161  TIP3      4471            0.0000000000
     35734      4664  TIP3      OH2           -28.8981101396       -6.3064588203      -25.4256083467  TIP3      4472            0.0000000000
     35735      4664  TIP3      H1            -29.2950095984       -5.7970587336      -26.1667715838  TIP3      4472            0.0000000000
     35736      4664  TIP3      H2            -29.1947212751       -7.2332993757      -25.5768359144  TIP3      4472            0.0000000000
     35737      4665  TIP3      OH2           -23.3570388990       -6.6118987706      -27.4240994288  TIP3      4473            0.0000000000
     35738      4665  TIP3      H1            -22.5396677787       -6.0884529405      -27.5805885413  TIP3      4473            0.0000000000
     35739      4665  TIP3      H2            -23.9677770621       -5.8640502594      -27.2988092778  TIP3      4473            0.0000000000
     35740      4666  TIP3      OH2           -34.5400356537       -9.5998814158      -24.7351391907  TIP3      4474            0.0000000000
     35741      4666  TIP3      H1            -33.7130838580      -10.1139987786      -24.8623673276  TIP3      4474            0.0000000000
     35742      4666  TIP3      H2            -34.9505505067      -10.2262354077      -24.1041903393  TIP3      4474            0.0000000000
     35743      4667  TIP3      OH2           -29.8631034317       -7.8756069858      -39.9049782331  TIP3      4475            0.0000000000
     35744      4667  TIP3      H1            -30.4955245100       -8.4658370568      -39.4612291345  TIP3      4475            0.0000000000
     35745      4667  TIP3      H2            -29.5359752269       -8.4724452053      -40.6104164129  TIP3      4475            0.0000000000
     35746      4668  TIP3      OH2           -31.1432385446      -10.4362204477      -28.5590371496  TIP3      4476            0.0000000000
     35747      4668  TIP3      H1            -31.7226537995       -9.6821932159      -28.2889690518  TIP3      4476            0.0000000000
     35748      4668  TIP3      H2            -30.3003378318       -9.9339407973      -28.6442302621  TIP3      4476            0.0000000000
     35749      4669  TIP3      OH2           -28.8794130072       -9.7209726113      -41.8792092410  TIP3      4477            0.0000000000
     35750      4669  TIP3      H1            -28.7158079828       -9.6619295966      -42.8432213446  TIP3      4477            0.0000000000
     35751      4669  TIP3      H2            -27.9609350310       -9.6701375118      -41.5000131217  TIP3      4477            0.0000000000
     35752      4670  TIP3      OH2           -25.4874828271       -7.3154186359      -24.2525772393  TIP3      4478            0.0000000000
     35753      4670  TIP3      H1            -24.7696392631       -7.6083532674      -24.8333982962  TIP3      4478            0.0000000000
     35754      4670  TIP3      H2            -25.6151874578       -8.0385723623      -23.6302466550  TIP3      4478            0.0000000000
     35755      4671  TIP3      OH2           -19.8442151448       -7.1352544163       42.4990644841  TIP3      4479            0.0000000000
     35756      4671  TIP3      H1            -20.1877309254       -7.0626325345       41.5931089382  TIP3      4479            0.0000000000
     35757      4671  TIP3      H2            -19.5767159473       -6.2256874914       42.6946105358  TIP3      4479            0.0000000000
     35758      4672  TIP3      OH2           -30.1274728066      -12.6486550128      -27.0228206127  TIP3      4480            0.0000000000
     35759      4672  TIP3      H1            -30.0656438502      -13.4627629103      -27.5698864296  TIP3      4480            0.0000000000
     35760      4672  TIP3      H2            -30.1365928303      -11.9413312514      -27.6946032864  TIP3      4480            0.0000000000
     35761      4673  TIP3      OH2           -30.0545383154      -14.7993033698      -28.9058020856  TIP3      4481            0.0000000000
     35762      4673  TIP3      H1            -29.6296174403      -14.1994339500      -29.5698554491  TIP3      4481            0.0000000000
     35763      4673  TIP3      H2            -30.9910805407      -14.7597515305      -29.1945047345  TIP3      4481            0.0000000000
     35764      4674  TIP3      OH2           -28.7088674176       -8.9208784336      -29.0557766284  TIP3      4482            0.0000000000
     35765      4674  TIP3      H1            -27.8437991700       -8.5587303376      -29.2768932437  TIP3      4482            0.0000000000
     35766      4674  TIP3      H2            -29.2729715769       -8.1541992904      -29.2922501104  TIP3      4482            0.0000000000
     35767      4675  TIP3      OH2           -23.7036940083      -11.6486318858      -24.1817062964  TIP3      4483            0.0000000000
     35768      4675  TIP3      H1            -23.7428978173      -12.1084794500      -23.3115899780  TIP3      4483            0.0000000000
     35769      4675  TIP3      H2            -22.9768076442      -11.0203525404      -24.0527236570  TIP3      4483            0.0000000000
     35770      4676  TIP3      OH2           -22.7167491418       -8.4657194455      -25.4973234439  TIP3      4484            0.0000000000
     35771      4676  TIP3      H1            -22.8842507801       -7.7716835851      -26.1735698144  TIP3      4484            0.0000000000
     35772      4676  TIP3      H2            -21.7361271528       -8.4788293083      -25.5096552011  TIP3      4484            0.0000000000
     35773      4677  TIP3      OH2           -32.3406126164      -11.3854573368      -25.1176497649  TIP3      4485            0.0000000000
     35774      4677  TIP3      H1            -32.8798911283      -12.1939581362      -25.1557282285  TIP3      4485            0.0000000000
     35775      4677  TIP3      H2            -31.7121156910      -11.5431984054      -25.8504922917  TIP3      4485            0.0000000000
     35776      4678  TIP3      OH2           -29.2983164950      -17.3959101631      -28.6128423037  TIP3      4486            0.0000000000
     35777      4678  TIP3      H1            -29.4994855156      -16.4324731512      -28.6759086909  TIP3      4486            0.0000000000
     35778      4678  TIP3      H2            -29.8997530144      -17.7120160569      -29.3074207738  TIP3      4486            0.0000000000
     35779      4679  TIP3      OH2           -27.7354701436      -13.2873846433      -25.0022053380  TIP3      4487            0.0000000000
     35780      4679  TIP3      H1            -28.1590993687      -13.2868760682      -24.1348791167  TIP3      4487            0.0000000000
     35781      4679  TIP3      H2            -28.4812581349      -13.1368805739      -25.6135758984  TIP3      4487            0.0000000000
     35782      4680  TIP3      OH2           -25.1035372603      -13.8802544572      -25.8755348693  TIP3      4488            0.0000000000
     35783      4680  TIP3      H1            -26.0566216136      -13.9406410922      -25.6559030218  TIP3      4488            0.0000000000
     35784      4680  TIP3      H2            -24.7424975842      -13.4736328731      -25.0663653686  TIP3      4488            0.0000000000
     35785      4681  TIP3      OH2           -33.8834667913      -13.9071021213      -24.3995209579  TIP3      4489            0.0000000000
     35786      4681  TIP3      H1            -33.8895225027      -14.7869647772      -24.8100001483  TIP3      4489            0.0000000000
     35787      4681  TIP3      H2            -33.9897633490      -14.1666316325      -23.4656033514  TIP3      4489            0.0000000000
     35788      4682  TIP3      OH2           -29.0949396087      -17.2251725517      -25.8427479819  TIP3      4490            0.0000000000
     35789      4682  TIP3      H1            -28.2194877487      -17.6631100799      -25.7947494288  TIP3      4490            0.0000000000
     35790      4682  TIP3      H2            -29.0638228810      -16.8591801367      -26.7477739421  TIP3      4490            0.0000000000
     35791      4683  TIP3      OH2           -29.1746516581      -16.1537003316      -23.4215732958  TIP3      4491            0.0000000000
     35792      4683  TIP3      H1            -29.2168235005      -16.5929119372      -24.3036915960  TIP3      4491            0.0000000000
     35793      4683  TIP3      H2            -29.4767939725      -15.2558068724      -23.6464904000  TIP3      4491            0.0000000000
     35794      4684  TIP3      OH2           -29.0124345905        0.5612481464      -40.2191610780  TIP3      4492            0.0000000000
     35795      4684  TIP3      H1            -28.1937221054        0.9739689929      -40.5424588985  TIP3      4492            0.0000000000
     35796      4684  TIP3      H2            -29.6713784944        0.8839474887      -40.8335361655  TIP3      4492            0.0000000000
     35797      4685  TIP3      OH2           -35.7371865866       -4.4208710262      -41.0743111237  TIP3      4493            0.0000000000
     35798      4685  TIP3      H1            -34.7712034818       -4.3406444407      -41.2017527071  TIP3      4493            0.0000000000
     35799      4685  TIP3      H2            -35.9928738288       -4.7508239686      -41.9505880906  TIP3      4493            0.0000000000
     35800      4686  TIP3      OH2           -36.4410360670        0.7963576800      -36.5800080716  TIP3      4494            0.0000000000
     35801      4686  TIP3      H1            -37.3995222934        0.8993211935      -36.4577407034  TIP3      4494            0.0000000000
     35802      4686  TIP3      H2            -36.1885487267        0.3013634219      -35.7758535828  TIP3      4494            0.0000000000
     35803      4687  TIP3      OH2           -35.7830876866       -0.7983248988      -34.3551661051  TIP3      4495            0.0000000000
     35804      4687  TIP3      H1            -35.7742968830       -1.7404983612      -34.1337174813  TIP3      4495            0.0000000000
     35805      4687  TIP3      H2            -35.3691608761       -0.4121802641      -33.5483098766  TIP3      4495            0.0000000000
     35806      4688  TIP3      OH2           -18.4939478599       -0.4347200330      -31.7988996868  TIP3      4496            0.0000000000
     35807      4688  TIP3      H1            -18.1878723350       -0.3067939295      -30.8891813121  TIP3      4496            0.0000000000
     35808      4688  TIP3      H2            -17.7332833861       -0.1577829958      -32.3271694368  TIP3      4496            0.0000000000
     35809      4689  TIP3      OH2           -19.0384425289       -0.6633774140      -28.7778106145  TIP3      4497            0.0000000000
     35810      4689  TIP3      H1            -19.5203736505       -1.3439904428      -29.2955570322  TIP3      4497            0.0000000000
     35811      4689  TIP3      H2            -18.6971612723       -1.2130732990      -28.0553463605  TIP3      4497            0.0000000000
     35812      4690  TIP3      OH2           -20.2808953853       -4.9884356408      -23.7706550101  TIP3      4498            0.0000000000
     35813      4690  TIP3      H1            -21.1630452230       -4.7475522191      -23.4264851130  TIP3      4498            0.0000000000
     35814      4690  TIP3      H2            -19.9143452271       -4.1301195846      -23.9668095281  TIP3      4498            0.0000000000
     35815      4691  TIP3      OH2           -19.2405639821       -6.5959348673      -38.5647418779  TIP3      4499            0.0000000000
     35816      4691  TIP3      H1            -18.3790815777       -6.1469574472      -38.4307444264  TIP3      4499            0.0000000000
     35817      4691  TIP3      H2            -19.2438828337       -7.2344580782      -37.8226902645  TIP3      4499            0.0000000000
     35818      4692  TIP3      OH2           -18.7734474529       -8.6447628310      -36.6277116226  TIP3      4500            0.0000000000
     35819      4692  TIP3      H1            -19.5481877174       -8.9957484285      -36.1283767344  TIP3      4500            0.0000000000
     35820      4692  TIP3      H2            -18.1521980664       -8.4882374855      -35.8900357605  TIP3      4500            0.0000000000
     35821      4693  TIP3      OH2           -18.9866788580       -5.5935579266      -31.7291952879  TIP3      4501            0.0000000000
     35822      4693  TIP3      H1            -18.3783448263       -6.3128332850      -32.0009277999  TIP3      4501            0.0000000000
     35823      4693  TIP3      H2            -18.4778425292       -4.7912887835      -31.9640394952  TIP3      4501            0.0000000000
     35824      4694  TIP3      OH2           -20.3101534970       -3.1221499206      -29.4166708081  TIP3      4502            0.0000000000
     35825      4694  TIP3      H1            -21.0536867287       -2.7532451088      -28.9104212332  TIP3      4502            0.0000000000
     35826      4694  TIP3      H2            -20.7457345480       -3.4270923671      -30.2501417406  TIP3      4502            0.0000000000
     35827      4695  TIP3      OH2           -18.7816778167       -8.8961444376      -40.2386142005  TIP3      4503            0.0000000000
     35828      4695  TIP3      H1            -19.2765449183       -8.6099563529      -41.0285731291  TIP3      4503            0.0000000000
     35829      4695  TIP3      H2            -18.9922331878       -8.1824015424      -39.6027607385  TIP3      4503            0.0000000000
     35830      4696  TIP3      OH2           -20.7120582738      -11.6871174807      -41.2574844295  TIP3      4504            0.0000000000
     35831      4696  TIP3      H1            -20.2063486912      -11.1759937232      -41.9125880676  TIP3      4504            0.0000000000
     35832      4696  TIP3      H2            -20.6748876426      -12.5792484056      -41.6786057733  TIP3      4504            0.0000000000
     35833      4697  TIP3      OH2           -20.8401593641       -9.8141033636      -35.4813864634  TIP3      4505            0.0000000000
     35834      4697  TIP3      H1            -21.0336179258      -10.6501513906      -35.9205474336  TIP3      4505            0.0000000000
     35835      4697  TIP3      H2            -21.2307628895       -9.9765146963      -34.5878388843  TIP3      4505            0.0000000000
     35836      4698  TIP3      OH2           -35.6838415931       -7.7519754795      -32.4018481479  TIP3      4506            0.0000000000
     35837      4698  TIP3      H1            -35.6246879258       -8.1316516448      -33.3037106798  TIP3      4506            0.0000000000
     35838      4698  TIP3      H2            -34.8913656459       -7.1925894944      -32.3718051888  TIP3      4506            0.0000000000
     35839      4699  TIP3      OH2           -19.8929589621       -8.1315960248      -26.0747772373  TIP3      4507            0.0000000000
     35840      4699  TIP3      H1            -19.2693269074       -8.8437489450      -25.8168902441  TIP3      4507            0.0000000000
     35841      4699  TIP3      H2            -19.3166698537       -7.3499659815      -26.1661172114  TIP3      4507            0.0000000000
     35842      4700  TIP3      OH2           -18.3686239871      -10.4612578326      -25.9101758926  TIP3      4508            0.0000000000
     35843      4700  TIP3      H1            -19.3046959038      -10.6603795669      -26.1127392848  TIP3      4508            0.0000000000
     35844      4700  TIP3      H2            -18.0499445759      -11.3769730480      -25.7607330579  TIP3      4508            0.0000000000
     35845      4701  TIP3      OH2           -20.8466433693      -14.0066556495      -42.6119504199  TIP3      4509            0.0000000000
     35846      4701  TIP3      H1            -20.3248584315      -14.6129619613      -42.0313427722  TIP3      4509            0.0000000000
     35847      4701  TIP3      H2            -21.7676546364      -14.1466358469      -42.3380891879  TIP3      4509            0.0000000000
     35848      4702  TIP3      OH2           -21.5100718542      -12.3274166971      -37.5088732576  TIP3      4510            0.0000000000
     35849      4702  TIP3      H1            -21.1148223317      -13.0754175687      -37.0172133602  TIP3      4510            0.0000000000
     35850      4702  TIP3      H2            -21.1151745176      -12.5002211306      -38.3792549840  TIP3      4510            0.0000000000
     35851      4703  TIP3      OH2           -20.3132035967      -11.8242384242      -31.8093101970  TIP3      4511            0.0000000000
     35852      4703  TIP3      H1            -19.3457108699      -11.7176788995      -31.6762578907  TIP3      4511            0.0000000000
     35853      4703  TIP3      H2            -20.5968916325      -11.7274221501      -30.8843461921  TIP3      4511            0.0000000000
     35854      4704  TIP3      OH2           -20.3187838538      -10.9728388520      -29.2192730850  TIP3      4512            0.0000000000
     35855      4704  TIP3      H1            -20.8359905154      -10.7854630052      -28.4104003109  TIP3      4512            0.0000000000
     35856      4704  TIP3      H2            -19.8892882681      -10.1144481935      -29.4037371417  TIP3      4512            0.0000000000
     35857      4705  TIP3      OH2           -35.9797773136      -12.5268851450      -25.7073173710  TIP3      4513            0.0000000000
     35858      4705  TIP3      H1            -35.2167880177      -12.9663113860      -25.2810896555  TIP3      4513            0.0000000000
     35859      4705  TIP3      H2            -36.7040326873      -13.1249454173      -25.4236534196  TIP3      4513            0.0000000000
     35860      4706  TIP3      OH2           -20.6026041149      -14.9789183614      -37.1202349317  TIP3      4514            0.0000000000
     35861      4706  TIP3      H1            -20.2262856248      -15.5010324253      -36.3761895582  TIP3      4514            0.0000000000
     35862      4706  TIP3      H2            -20.9673631323      -15.6804580221      -37.6799095173  TIP3      4514            0.0000000000
     35863      4707  TIP3      OH2           -35.1702213318      -14.5873866637      -32.7501180244  TIP3      4515            0.0000000000
     35864      4707  TIP3      H1            -34.6046685761      -15.3945455638      -32.7002890059  TIP3      4515            0.0000000000
     35865      4707  TIP3      H2            -34.5372192678      -13.8988521819      -32.4894244608  TIP3      4515            0.0000000000
     35866      4708  TIP3      OH2           -36.4348631614      -10.1835252211      -31.2344288652  TIP3      4516            0.0000000000
     35867      4708  TIP3      H1            -35.5160979232      -10.4922834648      -31.2968071227  TIP3      4516            0.0000000000
     35868      4708  TIP3      H2            -36.5064337079       -9.6541295603      -32.0570273101  TIP3      4516            0.0000000000
     35869      4709  TIP3      OH2           -19.3169717342      -15.4981739073      -25.5341189960  TIP3      4517            0.0000000000
     35870      4709  TIP3      H1            -20.0561700696      -15.0687309861      -26.0277217786  TIP3      4517            0.0000000000
     35871      4709  TIP3      H2            -18.8454184629      -15.8952896908      -26.2744832159  TIP3      4517            0.0000000000
     35872      4710  TIP3      OH2           -19.0643803680      -15.0304008103      -40.8832689404  TIP3      4518            0.0000000000
     35873      4710  TIP3      H1            -18.3088634971      -15.4112695999      -41.3632914320  TIP3      4518            0.0000000000
     35874      4710  TIP3      H2            -18.6540530854      -14.3001402952      -40.3935210355  TIP3      4518            0.0000000000
     35875      4711  TIP3      OH2           -35.9280921796      -14.5152097321      -37.8390829194  TIP3      4519            0.0000000000
     35876      4711  TIP3      H1            -36.7796356537      -14.4766582239      -38.2937882901  TIP3      4519            0.0000000000
     35877      4711  TIP3      H2            -35.4773495606      -13.7338786506      -38.2504977832  TIP3      4519            0.0000000000
     35878      4712  TIP3      OH2           -21.5126006420        0.0407188676      -35.4716627891  TIP3      4520            0.0000000000
     35879      4712  TIP3      H1            -20.8221823692       -0.1923816128      -36.1248217372  TIP3      4520            0.0000000000
     35880      4712  TIP3      H2            -21.0081786002        0.5233926860      -34.7917664626  TIP3      4520            0.0000000000
     35881      4713  TIP3      OH2           -36.2134473467      -17.0294045825      -29.3976217937  TIP3      4521            0.0000000000
     35882      4713  TIP3      H1            -36.4131272557      -16.6474289946      -28.5308725215  TIP3      4521            0.0000000000
     35883      4713  TIP3      H2            -36.5444060227      -16.3347627239      -29.9896247833  TIP3      4521            0.0000000000
     35884      4714  TIP3      OH2           -34.0206724752       -3.1444296389      -24.8046862898  TIP3      4522            0.0000000000
     35885      4714  TIP3      H1            -34.6060523006       -3.2967797025      -25.5552301436  TIP3      4522            0.0000000000
     35886      4714  TIP3      H2            -34.5683777008       -3.4457702918      -24.0533349677  TIP3      4522            0.0000000000
     35887      4715  TIP3      OH2           -31.1462485071       -1.5205111970      -28.6565071426  TIP3      4523            0.0000000000
     35888      4715  TIP3      H1            -31.2912532852       -0.7634363622      -29.2757653165  TIP3      4523            0.0000000000
     35889      4715  TIP3      H2            -30.1923396035       -1.6873759169      -28.8028994312  TIP3      4523            0.0000000000
     35890      4716  TIP3      OH2           -27.2787039201       -0.6152182140      -26.4600682962  TIP3      4524            0.0000000000
     35891      4716  TIP3      H1            -27.2131509654       -0.6684609055      -25.4871567016  TIP3      4524            0.0000000000
     35892      4716  TIP3      H2            -26.3635281206       -0.3315570981      -26.6860351469  TIP3      4524            0.0000000000
     35893      4717  TIP3      OH2           -24.9292292678        0.6190462126      -27.0282706453  TIP3      4525            0.0000000000
     35894      4717  TIP3      H1            -24.1220772014        0.3750886520      -27.4903036247  TIP3      4525            0.0000000000
     35895      4717  TIP3      H2            -24.5759030072        0.8441664511      -26.1269038328  TIP3      4525            0.0000000000
     35896      4718  TIP3      OH2           -19.6852162276      -17.2833029575      -27.7505087371  TIP3      4526            0.0000000000
     35897      4718  TIP3      H1            -20.3196508064      -16.8859039156      -28.3574805792  TIP3      4526            0.0000000000
     35898      4718  TIP3      H2            -19.4118454924      -18.0984113669      -28.2366522420  TIP3      4526            0.0000000000
     35899      4719  TIP3      OH2           -33.7394168666        1.2426697333      -28.8978516690  TIP3      4527            0.0000000000
     35900      4719  TIP3      H1            -34.5914517708        1.5712128671      -29.2654463838  TIP3      4527            0.0000000000
     35901      4719  TIP3      H2            -33.9332988764        1.2165065657      -27.9490957251  TIP3      4527            0.0000000000
     35902      4720  TIP3      OH2           -31.5672861383        0.6134668778      -30.2166023149  TIP3      4528            0.0000000000
     35903      4720  TIP3      H1            -32.4322521521        0.7914539659      -29.7602259047  TIP3      4528            0.0000000000
     35904      4720  TIP3      H2            -31.4590949302        1.3825487561      -30.8111773148  TIP3      4528            0.0000000000
     35905      4721  TIP3      OH2           -26.8310667368        0.2060983528      -30.7579971342  TIP3      4529            0.0000000000
     35906      4721  TIP3      H1            -27.2426067662        0.7090503674      -31.4741963671  TIP3      4529            0.0000000000
     35907      4721  TIP3      H2            -26.6317074039        0.9235609218      -30.1152274613  TIP3      4529            0.0000000000
     35908      4722  TIP3      OH2           -24.7354955979       -1.0830371417      -29.4473348661  TIP3      4530            0.0000000000
     35909      4722  TIP3      H1            -25.4408264183       -0.6157713755      -29.9406106302  TIP3      4530            0.0000000000
     35910      4722  TIP3      H2            -23.9834103935       -0.5149207536      -29.6882428475  TIP3      4530            0.0000000000
     35911      4723  TIP3      OH2           -22.0645161371        0.5683237494      -29.5911454626  TIP3      4531            0.0000000000
     35912      4723  TIP3      H1            -22.0172445777        1.5154588942      -29.8048719998  TIP3      4531            0.0000000000
     35913      4723  TIP3      H2            -21.7461899497        0.1970499264      -30.4439272008  TIP3      4531            0.0000000000
     35914      4724  TIP3      OH2           -34.2778354202       -0.4644346360      -32.1946420421  TIP3      4532            0.0000000000
     35915      4724  TIP3      H1            -34.3791129454       -1.0133499768      -31.3808585474  TIP3      4532            0.0000000000
     35916      4724  TIP3      H2            -33.3900438347       -0.7557405612      -32.5129572171  TIP3      4532            0.0000000000
     35917      4725  TIP3      OH2           -32.0750026200       -1.4509113020      -33.4296631944  TIP3      4533            0.0000000000
     35918      4725  TIP3      H1            -32.2537150872       -2.3820838443      -33.2179490617  TIP3      4533            0.0000000000
     35919      4725  TIP3      H2            -31.2773330270       -1.3192063578      -32.8717106240  TIP3      4533            0.0000000000
     35920      4726  TIP3      OH2           -29.8830065363       -1.5585748012      -31.9204550962  TIP3      4534            0.0000000000
     35921      4726  TIP3      H1            -29.6238576997       -2.4849020060      -32.0495030804  TIP3      4534            0.0000000000
     35922      4726  TIP3      H2            -29.4785630261       -1.3573705367      -31.0592942172  TIP3      4534            0.0000000000
     35923      4727  TIP3      OH2           -26.8308942790      -15.7853554340      -33.1986563236  TIP3      4535            0.0000000000
     35924      4727  TIP3      H1            -27.6758782632      -16.2624364863      -32.9970529442  TIP3      4535            0.0000000000
     35925      4727  TIP3      H2            -26.4481903912      -16.3064258407      -33.9158597458  TIP3      4535            0.0000000000
     35926      4728  TIP3      OH2           -21.0180099564      -17.5148641204      -33.5092127138  TIP3      4536            0.0000000000
     35927      4728  TIP3      H1            -20.3360780538      -16.9766637171      -33.9734788168  TIP3      4536            0.0000000000
     35928      4728  TIP3      H2            -21.8422432942      -17.1249837881      -33.8720011098  TIP3      4536            0.0000000000
     35929      4729  TIP3      OH2           -19.2284641954      -16.6213400451      -35.3367990464  TIP3      4537            0.0000000000
     35930      4729  TIP3      H1            -18.5479689684      -17.0977525561      -35.8746310146  TIP3      4537            0.0000000000
     35931      4729  TIP3      H2            -18.7136500532      -15.8481199807      -35.0105903681  TIP3      4537            0.0000000000
     35932      4730  TIP3      OH2           -33.9790000234      -17.0910187535      -35.7068592405  TIP3      4538            0.0000000000
     35933      4730  TIP3      H1            -34.6807039755      -17.2175567498      -36.3832134452  TIP3      4538            0.0000000000
     35934      4730  TIP3      H2            -33.4377020666      -17.8949003871      -35.8722037753  TIP3      4538            0.0000000000
     35935      4731  TIP3      OH2           -34.3553783060      -17.0157005570      -39.4784463466  TIP3      4539            0.0000000000
     35936      4731  TIP3      H1            -34.3570818481      -16.0477933867      -39.5867768550  TIP3      4539            0.0000000000
     35937      4731  TIP3      H2            -35.3272946261      -17.2007213027      -39.4697851835  TIP3      4539            0.0000000000
     35938      4732  TIP3      OH2           -29.5644844737      -17.4380379369      -35.7516536230  TIP3      4540            0.0000000000
     35939      4732  TIP3      H1            -28.7570051499      -17.1106672505      -36.1675869592  TIP3      4540            0.0000000000
     35940      4732  TIP3      H2            -29.3442796982      -17.3677240319      -34.8080597234  TIP3      4540            0.0000000000
     35941      4733  TIP3      OH2           -23.6580925079      -16.9237746334      -34.3090297976  TIP3      4541            0.0000000000
     35942      4733  TIP3      H1            -23.9617859170      -16.7670647432      -35.2074923158  TIP3      4541            0.0000000000
     35943      4733  TIP3      H2            -24.1223537688      -17.7700866916      -34.1093268936  TIP3      4541            0.0000000000
     35944      4734  TIP3      OH2           -22.3742324106      -17.2457502534      -38.6726923968  TIP3      4542            0.0000000000
     35945      4734  TIP3      H1            -23.1589163765      -16.6991042231      -38.7648930815  TIP3      4542            0.0000000000
     35946      4734  TIP3      H2            -22.7236179335      -17.9778798061      -38.1146221417  TIP3      4542            0.0000000000
     35947      4735  TIP3      OH2           -34.9760639078       -1.1279421611      -38.8028024989  TIP3      4543            0.0000000000
     35948      4735  TIP3      H1            -35.9261299355       -1.1648361759      -39.0370384138  TIP3      4543            0.0000000000
     35949      4735  TIP3      H2            -34.7664667238       -0.2233296517      -39.1160630407  TIP3      4543            0.0000000000
     35950      4736  TIP3      OH2           -34.0375924814      -15.0096324937      -41.3497429949  TIP3      4544            0.0000000000
     35951      4736  TIP3      H1            -33.6794417103      -15.8628304794      -41.6229031292  TIP3      4544            0.0000000000
     35952      4736  TIP3      H2            -33.2445551867      -14.6290315537      -40.9551380563  TIP3      4544            0.0000000000
     35953      4737  TIP3      OH2           -28.5182962372      -14.6368684055      -38.8416846804  TIP3      4545            0.0000000000
     35954      4737  TIP3      H1            -28.0007829709      -15.2749378446      -38.3213825287  TIP3      4545            0.0000000000
     35955      4737  TIP3      H2            -28.1988470048      -13.8151588619      -38.3995183295  TIP3      4545            0.0000000000
     35956      4738  TIP3      OH2           -26.2368283276        0.8944184189      -40.6600134836  TIP3      4546            0.0000000000
     35957      4738  TIP3      H1            -25.2898174144        1.0446275540      -40.8623520573  TIP3      4546            0.0000000000
     35958      4738  TIP3      H2            -26.2566037094       -0.0652918381      -40.8503221937  TIP3      4546            0.0000000000
     35959      4739  TIP3      OH2           -19.9233828990       -0.7972907089      -37.3947918939  TIP3      4547            0.0000000000
     35960      4739  TIP3      H1            -20.0827988030       -1.5748958855      -37.9919718857  TIP3      4547            0.0000000000
     35961      4739  TIP3      H2            -19.9353178669       -0.0831500885      -38.0707166160  TIP3      4547            0.0000000000
     35962      4740  TIP3      OH2           -34.6261001248      -16.3968394073      -26.1885008318  TIP3      4548            0.0000000000
     35963      4740  TIP3      H1            -34.8808105443      -17.3077374088      -25.9825426374  TIP3      4548            0.0000000000
     35964      4740  TIP3      H2            -33.8445411888      -16.3345356903      -25.6013923118  TIP3      4548            0.0000000000
     35965      4741  TIP3      OH2           -32.6108482032      -17.0273087872      -24.5989310098  TIP3      4549            0.0000000000
     35966      4741  TIP3      H1            -31.7551395145      -17.3262557359      -24.9244558999  TIP3      4549            0.0000000000
     35967      4741  TIP3      H2            -32.8512776646      -17.6537212309      -23.8986974885  TIP3      4549            0.0000000000
     35968      4742  TIP3      OH2           -33.1564021254        0.5486084460      -41.6151742169  TIP3      4550            0.0000000000
     35969      4742  TIP3      H1            -33.3050537516        0.7774010170      -40.6779210440  TIP3      4550            0.0000000000
     35970      4742  TIP3      H2            -33.1290218638       -0.4162136716      -41.6067387441  TIP3      4550            0.0000000000
     35971      4743  TIP3      OH2           -20.4266933970       -1.6924036118      -25.8629795170  TIP3      4551            0.0000000000
     35972      4743  TIP3      H1            -21.0848440053       -1.7995716252      -26.5988107674  TIP3      4551            0.0000000000
     35973      4743  TIP3      H2            -20.6278014600       -0.7571244186      -25.6443823937  TIP3      4551            0.0000000000
     35974      4744  TIP3      OH2            -5.9047710345       -7.6848762684      -35.7822774280  TIP3      4552            0.0000000000
     35975      4744  TIP3      H1             -6.0543191956       -6.7124104101      -35.8354619332  TIP3      4552            0.0000000000
     35976      4744  TIP3      H2             -6.7434012165       -8.0300772742      -36.1292078375  TIP3      4552            0.0000000000
     35977      4745  TIP3      OH2            -7.1706150895       -9.1372565890      -32.4792935853  TIP3      4553            0.0000000000
     35978      4745  TIP3      H1             -7.1697039446       -9.4755186630      -31.5621318000  TIP3      4553            0.0000000000
     35979      4745  TIP3      H2             -8.0609094304       -9.3336497497      -32.8163978724  TIP3      4553            0.0000000000
     35980      4746  TIP3      OH2           -14.9283540268       -8.7537998736      -30.6226184815  TIP3      4554            0.0000000000
     35981      4746  TIP3      H1            -14.9650710450       -9.5463008016      -30.0614274036  TIP3      4554            0.0000000000
     35982      4746  TIP3      H2            -14.1083589179       -8.3356309516      -30.3134098139  TIP3      4554            0.0000000000
     35983      4747  TIP3      OH2            -3.9430312648       -5.7287143916      -34.2517339076  TIP3      4555            0.0000000000
     35984      4747  TIP3      H1             -4.2055336927       -6.5004399769      -33.7271686761  TIP3      4555            0.0000000000
     35985      4747  TIP3      H2             -3.6960336982       -5.1349722387      -33.5124984563  TIP3      4555            0.0000000000
     35986      4748  TIP3      OH2           -13.9132552849       -4.3832498062      -32.3124236199  TIP3      4556            0.0000000000
     35987      4748  TIP3      H1            -14.2017021609       -5.2654143847      -32.6230438909  TIP3      4556            0.0000000000
     35988      4748  TIP3      H2            -12.9606254009       -4.4495346742      -32.5125091283  TIP3      4556            0.0000000000
     35989      4749  TIP3      OH2           -17.2788033898      -11.1843016012      -36.7100970989  TIP3      4557            0.0000000000
     35990      4749  TIP3      H1            -17.4933756456      -10.2445062947      -36.6266031459  TIP3      4557            0.0000000000
     35991      4749  TIP3      H2            -17.8915786044      -11.4436096463      -37.4224082282  TIP3      4557            0.0000000000
     35992      4750  TIP3      OH2           -16.6675583393       -8.5700334638      -34.4234281163  TIP3      4558            0.0000000000
     35993      4750  TIP3      H1            -16.2496146868       -9.4390402220      -34.2234477297  TIP3      4558            0.0000000000
     35994      4750  TIP3      H2            -15.9359777244       -7.9392505184      -34.3047952066  TIP3      4558            0.0000000000
     35995      4751  TIP3      OH2            -6.1928112642       -0.2311530296      -33.7324644229  TIP3      4559            0.0000000000
     35996      4751  TIP3      H1             -5.4474367433       -0.7809645100      -34.0774507442  TIP3      4559            0.0000000000
     35997      4751  TIP3      H2             -6.7420883843       -0.9501971100      -33.3985256903  TIP3      4559            0.0000000000
     35998      4752  TIP3      OH2            -9.0019729255       -6.2047081060      -31.2592118165  TIP3      4560            0.0000000000
     35999      4752  TIP3      H1             -8.6550760603       -6.3599348767      -32.1443788849  TIP3      4560            0.0000000000
     36000      4752  TIP3      H2             -8.1766359267       -5.9590501879      -30.7849988688  TIP3      4560            0.0000000000
     36001      4753  TIP3      OH2            -0.4302004187      -14.4462330454      -31.5036108364  TIP3      4561            0.0000000000
     36002      4753  TIP3      H1             -0.4045835299      -13.9670916287      -30.6451015611  TIP3      4561            0.0000000000
     36003      4753  TIP3      H2              0.4721075515      -14.2790769986      -31.8173364443  TIP3      4561            0.0000000000
     36004      4754  TIP3      OH2            -5.1896163090      -11.4774252768      -31.1932852760  TIP3      4562            0.0000000000
     36005      4754  TIP3      H1             -5.1576158819      -12.4135833850      -30.9253843610  TIP3      4562            0.0000000000
     36006      4754  TIP3      H2             -5.2129824046      -11.5839977597      -32.1620022839  TIP3      4562            0.0000000000
     36007      4755  TIP3      OH2           -12.3543031104      -13.8437241668      -34.5250822991  TIP3      4563            0.0000000000
     36008      4755  TIP3      H1            -12.1864438093      -13.0529142369      -35.0764289843  TIP3      4563            0.0000000000
     36009      4755  TIP3      H2            -12.8093549931      -14.4101294316      -35.1840210718  TIP3      4563            0.0000000000
     36010      4756  TIP3      OH2            -4.8111528169      -13.6601702455      -35.9604419363  TIP3      4564            0.0000000000
     36011      4756  TIP3      H1             -4.2569409102      -13.9072184562      -35.1802936548  TIP3      4564            0.0000000000
     36012      4756  TIP3      H2             -4.3471090014      -12.8713016322      -36.2693486715  TIP3      4564            0.0000000000
     36013      4757  TIP3      OH2           -16.0377263973      -11.1654882750      -33.5950683667  TIP3      4565            0.0000000000
     36014      4757  TIP3      H1            -15.3494671275      -11.5256507445      -33.0093138588  TIP3      4565            0.0000000000
     36015      4757  TIP3      H2            -15.7671427329      -11.5858586039      -34.4445209997  TIP3      4565            0.0000000000
     36016      4758  TIP3      OH2           -11.0815823227       -9.6721829508      -34.1263962190  TIP3      4566            0.0000000000
     36017      4758  TIP3      H1            -10.2376100588      -10.1073658218      -33.8876520195  TIP3      4566            0.0000000000
     36018      4758  TIP3      H2            -11.4149242516      -10.3350643195      -34.7657650674  TIP3      4566            0.0000000000
     36019      4759  TIP3      OH2            -0.1860026367      -13.4138808497      -28.9722879753  TIP3      4567            0.0000000000
     36020      4759  TIP3      H1             -0.5921700077      -12.5307299295      -29.1388877085  TIP3      4567            0.0000000000
     36021      4759  TIP3      H2              0.3341931522      -13.2359782495      -28.1702836376  TIP3      4567            0.0000000000
     36022      4760  TIP3      OH2           -13.5550069126      -14.6292149999      -30.4081492829  TIP3      4568            0.0000000000
     36023      4760  TIP3      H1            -13.8758784482      -14.1088469364      -31.1654515419  TIP3      4568            0.0000000000
     36024      4760  TIP3      H2            -14.2330233438      -14.4043069081      -29.7462465987  TIP3      4568            0.0000000000
     36025      4761  TIP3      OH2            -6.6790515153       -5.2981317336      -36.7599601997  TIP3      4569            0.0000000000
     36026      4761  TIP3      H1             -6.8422573396       -5.1860807985      -37.7140150397  TIP3      4569            0.0000000000
     36027      4761  TIP3      H2             -6.8388330665       -4.3838797301      -36.4234566853  TIP3      4569            0.0000000000
     36028      4762  TIP3      OH2           -11.3837577251       -7.0866543226      -30.4261583292  TIP3      4570            0.0000000000
     36029      4762  TIP3      H1            -11.8548379214       -6.3141746574      -30.0522401037  TIP3      4570            0.0000000000
     36030      4762  TIP3      H2            -10.5776569027       -6.6476731856      -30.7787694702  TIP3      4570            0.0000000000
     36031      4763  TIP3      OH2            -3.0205507804      -14.1348552221      -33.8927877786  TIP3      4571            0.0000000000
     36032      4763  TIP3      H1             -2.9486304180      -14.9657194299      -33.4122127947  TIP3      4571            0.0000000000
     36033      4763  TIP3      H2             -2.2869909572      -13.6368722538      -33.4931066247  TIP3      4571            0.0000000000
     36034      4764  TIP3      OH2           -13.9265314968      -12.7206216776      -32.3361126403  TIP3      4572            0.0000000000
     36035      4764  TIP3      H1            -13.3154268319      -12.1065636960      -31.8653557437  TIP3      4572            0.0000000000
     36036      4764  TIP3      H2            -13.3921980238      -12.9886343756      -33.1176664477  TIP3      4572            0.0000000000
     36037      4765  TIP3      OH2           -12.4720715963       -4.7882516153      -29.4498537381  TIP3      4573            0.0000000000
     36038      4765  TIP3      H1            -12.6744996829       -4.0384062657      -30.0269606576  TIP3      4573            0.0000000000
     36039      4765  TIP3      H2            -13.3158255602       -4.8329966722      -28.9315651552  TIP3      4573            0.0000000000
     36040      4766  TIP3      OH2           -16.6775030868       -5.4595283844      -38.4782075225  TIP3      4574            0.0000000000
     36041      4766  TIP3      H1            -16.6459502284       -4.9531129829      -39.3248130430  TIP3      4574            0.0000000000
     36042      4766  TIP3      H2            -16.6363583545       -4.7316690233      -37.8225799518  TIP3      4574            0.0000000000
     36043      4767  TIP3      OH2            -3.0774434916       -4.3087016097      -32.0205206442  TIP3      4575            0.0000000000
     36044      4767  TIP3      H1             -3.7265350542       -3.6737059413      -31.6536959237  TIP3      4575            0.0000000000
     36045      4767  TIP3      H2             -2.2739290149       -3.7474337663      -32.1459288813  TIP3      4575            0.0000000000
     36046      4768  TIP3      OH2            -2.9359305029      -15.5899044338      -30.6193525789  TIP3      4576            0.0000000000
     36047      4768  TIP3      H1             -3.7455676794      -15.4759002384      -31.1647145572  TIP3      4576            0.0000000000
     36048      4768  TIP3      H2             -2.3162420143      -14.9854711448      -31.0738140744  TIP3      4576            0.0000000000
     36049      4769  TIP3      OH2           -10.0673934971      -17.2786445995      -32.9227200559  TIP3      4577            0.0000000000
     36050      4769  TIP3      H1            -10.3653555026      -18.1847437701      -33.0106799177  TIP3      4577            0.0000000000
     36051      4769  TIP3      H2            -10.9091214291      -16.8338717481      -32.6288023338  TIP3      4577            0.0000000000
     36052      4770  TIP3      OH2            -4.6705588262       -1.8352882089      -35.2851120356  TIP3      4578            0.0000000000
     36053      4770  TIP3      H1             -4.2643247352       -2.6705829431      -35.6146650000  TIP3      4578            0.0000000000
     36054      4770  TIP3      H2             -3.9356087014       -1.1957066618      -35.4459843535  TIP3      4578            0.0000000000
     36055      4771  TIP3      OH2            -3.6372393193       -3.9807111711      -36.5770085610  TIP3      4579            0.0000000000
     36056      4771  TIP3      H1             -3.7326745795       -4.6810821665      -37.2480271226  TIP3      4579            0.0000000000
     36057      4771  TIP3      H2             -3.6465171594       -4.5204233073      -35.7659949905  TIP3      4579            0.0000000000
     36058      4772  TIP3      OH2            -2.3910104434       -5.8571655090      -28.4541349084  TIP3      4580            0.0000000000
     36059      4772  TIP3      H1             -1.5184878185       -5.9821284512      -28.8518317036  TIP3      4580            0.0000000000
     36060      4772  TIP3      H2             -2.2847894673       -4.9838433116      -28.0208124564  TIP3      4580            0.0000000000
     36061      4773  TIP3      OH2            -7.4684346304       -8.5199516797      -38.3763292927  TIP3      4581            0.0000000000
     36062      4773  TIP3      H1             -8.0546760232       -7.7310443912      -38.4510352791  TIP3      4581            0.0000000000
     36063      4773  TIP3      H2             -6.5866177723       -8.1531703258      -38.6050687076  TIP3      4581            0.0000000000
     36064      4774  TIP3      OH2            -7.3766615437       -9.3633530038      -41.1310673519  TIP3      4582            0.0000000000
     36065      4774  TIP3      H1             -6.8538530559       -9.1754202494      -40.3205488341  TIP3      4582            0.0000000000
     36066      4774  TIP3      H2             -6.9538149082      -10.1641014348      -41.4719752879  TIP3      4582            0.0000000000
     36067      4775  TIP3      OH2             0.2512211308       -9.1015420487      -30.1729960298  TIP3      4583            0.0000000000
     36068      4775  TIP3      H1             -0.6458200803       -8.8243141071      -30.4527850714  TIP3      4583            0.0000000000
     36069      4775  TIP3      H2              0.7649548486       -8.6053787674      -30.8475049991  TIP3      4583            0.0000000000
     36070      4776  TIP3      OH2            -3.5850355606       -8.1421622827      -37.1243918476  TIP3      4584            0.0000000000
     36071      4776  TIP3      H1             -4.3862983826       -8.0283791979      -36.5581622081  TIP3      4584            0.0000000000
     36072      4776  TIP3      H2             -3.0544665360       -8.7564699892      -36.5670133060  TIP3      4584            0.0000000000
     36073      4777  TIP3      OH2            -3.8981940747      -10.3748330936      -27.8545949486  TIP3      4585            0.0000000000
     36074      4777  TIP3      H1             -4.1008330689       -9.7203221892      -27.1359836063  TIP3      4585            0.0000000000
     36075      4777  TIP3      H2             -4.3976664472       -9.9989322191      -28.6000860951  TIP3      4585            0.0000000000
     36076      4778  TIP3      OH2           -12.4315066301       -7.8532373986      -35.5035555927  TIP3      4586            0.0000000000
     36077      4778  TIP3      H1            -12.6330807695       -8.3005480558      -36.3555184022  TIP3      4586            0.0000000000
     36078      4778  TIP3      H2            -11.8017839279       -8.4804908811      -35.0861389591  TIP3      4586            0.0000000000
     36079      4779  TIP3      OH2           -11.0124352241       -4.5124072811      -32.6988389901  TIP3      4587            0.0000000000
     36080      4779  TIP3      H1            -10.7636004395       -4.5608158214      -33.6290324143  TIP3      4587            0.0000000000
     36081      4779  TIP3      H2            -10.3008560920       -4.9805244759      -32.2194781613  TIP3      4587            0.0000000000
     36082      4780  TIP3      OH2           -12.1292122422       -9.2784332380      -31.6554327639  TIP3      4588            0.0000000000
     36083      4780  TIP3      H1            -11.8363336286       -9.2146025775      -32.5855039150  TIP3      4588            0.0000000000
     36084      4780  TIP3      H2            -11.7109436676       -8.4917884601      -31.2337802286  TIP3      4588            0.0000000000
     36085      4781  TIP3      OH2            -5.3807407971       -3.2444852316      -30.9623319796  TIP3      4589            0.0000000000
     36086      4781  TIP3      H1             -5.5955015954       -2.5305025875      -30.3352744212  TIP3      4589            0.0000000000
     36087      4781  TIP3      H2             -5.6248691517       -4.0455476868      -30.4684622773  TIP3      4589            0.0000000000
     36088      4782  TIP3      OH2           -10.9773296131       -4.7008777450      -27.0854319614  TIP3      4590            0.0000000000
     36089      4782  TIP3      H1            -11.5761961346       -4.1234339856      -26.5572914820  TIP3      4590            0.0000000000
     36090      4782  TIP3      H2            -11.4412514823       -4.7075716851      -27.9592434501  TIP3      4590            0.0000000000
     36091      4783  TIP3      OH2            -5.0053283574       -8.7370955266      -39.3875525866  TIP3      4591            0.0000000000
     36092      4783  TIP3      H1             -4.3836925739       -8.4677464510      -38.6726066994  TIP3      4591            0.0000000000
     36093      4783  TIP3      H2             -4.5732350354       -8.3706230651      -40.1896707791  TIP3      4591            0.0000000000
     36094      4784  TIP3      OH2           -14.1935087424       -8.4434234321      -27.5768104498  TIP3      4592            0.0000000000
     36095      4784  TIP3      H1            -14.1726214584       -7.7432315234      -26.8926518448  TIP3      4592            0.0000000000
     36096      4784  TIP3      H2            -15.0254607645       -8.8640787362      -27.2986799706  TIP3      4592            0.0000000000
     36097      4785  TIP3      OH2            -7.3068047358       -2.6829365344      -35.8151397414  TIP3      4593            0.0000000000
     36098      4785  TIP3      H1             -6.5667449656       -2.0752496845      -35.6463430781  TIP3      4593            0.0000000000
     36099      4785  TIP3      H2             -7.9039691327       -2.1530547437      -36.3518473206  TIP3      4593            0.0000000000
     36100      4786  TIP3      OH2           -12.6859165175       -2.8019062981      -26.2643428863  TIP3      4594            0.0000000000
     36101      4786  TIP3      H1            -12.9031811034       -2.4347169056      -27.1515362254  TIP3      4594            0.0000000000
     36102      4786  TIP3      H2            -13.5563036017       -3.1361542739      -25.9451643905  TIP3      4594            0.0000000000
     36103      4787  TIP3      OH2            -1.0085912640      -17.5273617305      -39.1377032234  TIP3      4595            0.0000000000
     36104      4787  TIP3      H1             -1.9471109274      -17.3705875506      -38.9053756838  TIP3      4595            0.0000000000
     36105      4787  TIP3      H2             -0.8492907343      -16.7668981999      -39.7178258753  TIP3      4595            0.0000000000
     36106      4788  TIP3      OH2           -13.5469223058       -8.8913709848      -37.8218252803  TIP3      4596            0.0000000000
     36107      4788  TIP3      H1            -14.0028491745       -8.1001360880      -38.1595619589  TIP3      4596            0.0000000000
     36108      4788  TIP3      H2            -14.1604868000       -9.5904550323      -38.0634033333  TIP3      4596            0.0000000000
     36109      4789  TIP3      OH2            -0.3360201903       -3.4940945317      -41.4765793727  TIP3      4597            0.0000000000
     36110      4789  TIP3      H1             -0.0607094859       -2.5703211244      -41.5498567223  TIP3      4597            0.0000000000
     36111      4789  TIP3      H2              0.5066036307       -3.8993466746      -41.1915621405  TIP3      4597            0.0000000000
     36112      4790  TIP3      OH2           -16.9550998566       -6.0051500375      -29.0105971903  TIP3      4598            0.0000000000
     36113      4790  TIP3      H1            -17.4466597603       -6.1961140204      -29.8248204058  TIP3      4598            0.0000000000
     36114      4790  TIP3      H2            -16.5548051621       -6.8837431986      -28.8631187714  TIP3      4598            0.0000000000
     36115      4791  TIP3      OH2           -17.2021035632       -3.4796566684      -32.2265862782  TIP3      4599            0.0000000000
     36116      4791  TIP3      H1            -16.2707397068       -3.7009912283      -32.3880807402  TIP3      4599            0.0000000000
     36117      4791  TIP3      H2            -17.1190193017       -2.8214056900      -31.5212511088  TIP3      4599            0.0000000000
     36118      4792  TIP3      OH2             1.5076755737       -3.1538442936      -25.8973486525  TIP3      4600            0.0000000000
     36119      4792  TIP3      H1              1.6501793284       -4.0641938695      -26.2283670609  TIP3      4600            0.0000000000
     36120      4792  TIP3      H2              0.5279285140       -3.1982405036      -25.7709893641  TIP3      4600            0.0000000000
     36121      4793  TIP3      OH2            -8.6322531946       -3.3401041444      -27.3184891756  TIP3      4601            0.0000000000
     36122      4793  TIP3      H1             -8.4354268868       -2.5838699562      -26.7219099448  TIP3      4601            0.0000000000
     36123      4793  TIP3      H2             -9.5597665147       -3.5845107425      -27.0840667571  TIP3      4601            0.0000000000
     36124      4794  TIP3      OH2            -7.8285465960        0.4547192729      -38.0217369626  TIP3      4602            0.0000000000
     36125      4794  TIP3      H1             -7.7472193117        0.7135213558      -38.9653833986  TIP3      4602            0.0000000000
     36126      4794  TIP3      H2             -7.8496172932        1.3369047012      -37.5870178035  TIP3      4602            0.0000000000
     36127      4795  TIP3      OH2           -14.1252191874       -0.8487189757      -35.8792565527  TIP3      4603            0.0000000000
     36128      4795  TIP3      H1            -13.8992414251       -1.1996877894      -34.9873816642  TIP3      4603            0.0000000000
     36129      4795  TIP3      H2            -14.9985992263       -1.2499781155      -36.0598096023  TIP3      4603            0.0000000000
     36130      4796  TIP3      OH2            -4.8268870037       -0.1224125590      -40.8038153054  TIP3      4604            0.0000000000
     36131      4796  TIP3      H1             -4.3670660724       -0.9343830452      -41.0852367634  TIP3      4604            0.0000000000
     36132      4796  TIP3      H2             -4.8278990895       -0.2475126470      -39.8303879802  TIP3      4604            0.0000000000
     36133      4797  TIP3      OH2            -5.1587456843       -0.3509325969      -38.1355017306  TIP3      4605            0.0000000000
     36134      4797  TIP3      H1             -6.1034175131       -0.1440511576      -37.9611995921  TIP3      4605            0.0000000000
     36135      4797  TIP3      H2             -5.0090328247       -1.1167214670      -37.5566481209  TIP3      4605            0.0000000000
     36136      4798  TIP3      OH2            -2.3497292325      -11.7883015029      -26.0210986090  TIP3      4606            0.0000000000
     36137      4798  TIP3      H1             -2.7199361290      -11.2587841520      -26.7565423786  TIP3      4606            0.0000000000
     36138      4798  TIP3      H2             -2.4289502455      -12.6948945469      -26.3717120728  TIP3      4606            0.0000000000
     36139      4799  TIP3      OH2           -14.7360256404       -4.7662302743      -28.0074445186  TIP3      4607            0.0000000000
     36140      4799  TIP3      H1            -14.6375230876       -5.2193949870      -27.1408786823  TIP3      4607            0.0000000000
     36141      4799  TIP3      H2            -15.6034616233       -5.1259302790      -28.3028684998  TIP3      4607            0.0000000000
     36142      4800  TIP3      OH2           -12.3300407565      -16.3171400449      -32.0632436096  TIP3      4608            0.0000000000
     36143      4800  TIP3      H1            -13.2397126643      -16.4086957720      -32.3967672755  TIP3      4608            0.0000000000
     36144      4800  TIP3      H2            -12.4998770193      -15.7774859357      -31.2635087043  TIP3      4608            0.0000000000
     36145      4801  TIP3      OH2            -7.4268844475      -16.7518520467      -28.8628706533  TIP3      4609            0.0000000000
     36146      4801  TIP3      H1             -6.9982659970      -17.2143980164      -28.1053612497  TIP3      4609            0.0000000000
     36147      4801  TIP3      H2             -8.3761290725      -16.7661953224      -28.6305780510  TIP3      4609            0.0000000000
     36148      4802  TIP3      OH2            -4.7395555039      -12.9908242368      -27.6121032736  TIP3      4610            0.0000000000
     36149      4802  TIP3      H1             -5.3145622226      -13.3586008886      -26.8944787138  TIP3      4610            0.0000000000
     36150      4802  TIP3      H2             -4.6227926547      -12.0512922263      -27.3759054891  TIP3      4610            0.0000000000
     36151      4803  TIP3      OH2            -3.7166708934       -7.7839903470      -41.5006328451  TIP3      4611            0.0000000000
     36152      4803  TIP3      H1             -3.8154691526       -7.3962330092      -42.3820060166  TIP3      4611            0.0000000000
     36153      4803  TIP3      H2             -2.7633698791       -7.6547531398      -41.3918934737  TIP3      4611            0.0000000000
     36154      4804  TIP3      OH2            -7.8264361604      -13.6886640082      -41.2738156416  TIP3      4612            0.0000000000
     36155      4804  TIP3      H1             -8.3991587833      -13.7888136660      -40.4899298400  TIP3      4612            0.0000000000
     36156      4804  TIP3      H2             -8.0786576275      -14.4533838213      -41.8090676916  TIP3      4612            0.0000000000
     36157      4805  TIP3      OH2           -12.1357461991      -11.6329611006      -30.5873546031  TIP3      4613            0.0000000000
     36158      4805  TIP3      H1            -12.9439238338      -11.4601728288      -30.0692260839  TIP3      4613            0.0000000000
     36159      4805  TIP3      H2            -12.0419613189      -10.7424852307      -31.0036593341  TIP3      4613            0.0000000000
     36160      4806  TIP3      OH2           -12.2161567136      -11.5972486623      -35.9635138535  TIP3      4614            0.0000000000
     36161      4806  TIP3      H1            -13.1854188066      -11.6458254881      -36.0428350906  TIP3      4614            0.0000000000
     36162      4806  TIP3      H2            -11.9378506566      -11.8415934842      -36.8722507767  TIP3      4614            0.0000000000
     36163      4807  TIP3      OH2            -6.6107703738      -10.6425242822      -37.0012145715  TIP3      4615            0.0000000000
     36164      4807  TIP3      H1             -6.9544073229       -9.9166695174      -37.5731587202  TIP3      4615            0.0000000000
     36165      4807  TIP3      H2             -5.9728163640      -11.0460371690      -37.6224069249  TIP3      4615            0.0000000000
     36166      4808  TIP3      OH2            -5.5211175987      -11.1919576246      -34.0722074259  TIP3      4616            0.0000000000
     36167      4808  TIP3      H1             -5.7085004862      -10.3441765051      -34.5299493354  TIP3      4616            0.0000000000
     36168      4808  TIP3      H2             -5.8280376548      -11.8283510767      -34.7308440742  TIP3      4616            0.0000000000
     36169      4809  TIP3      OH2           -14.6766630251      -11.4135167442      -29.5449484451  TIP3      4617            0.0000000000
     36170      4809  TIP3      H1            -14.3875803355      -11.1884060794      -28.6408927098  TIP3      4617            0.0000000000
     36171      4809  TIP3      H2            -14.9975594897      -12.3318289134      -29.4623886270  TIP3      4617            0.0000000000
     36172      4810  TIP3      OH2           -11.3939154873      -13.6180378792      -41.7272609165  TIP3      4618            0.0000000000
     36173      4810  TIP3      H1            -11.7123787990      -14.2221642247      -41.0218338621  TIP3      4618            0.0000000000
     36174      4810  TIP3      H2            -11.5833278185      -12.7374438182      -41.3398972185  TIP3      4618            0.0000000000
     36175      4811  TIP3      OH2           -17.8156199625      -14.2958358505      -34.8717191986  TIP3      4619            0.0000000000
     36176      4811  TIP3      H1            -17.2180929764      -14.1441798804      -34.1183101508  TIP3      4619            0.0000000000
     36177      4811  TIP3      H2            -17.3298232028      -13.9124495240      -35.6141617795  TIP3      4619            0.0000000000
     36178      4812  TIP3      OH2           -16.8167192485      -13.5324759816      -39.8485992315  TIP3      4620            0.0000000000
     36179      4812  TIP3      H1            -16.1330076863      -13.2252441610      -40.4664849304  TIP3      4620            0.0000000000
     36180      4812  TIP3      H2            -17.3137130277      -12.6939980096      -39.7587627537  TIP3      4620            0.0000000000
     36181      4813  TIP3      OH2            -6.7963220375       -9.8054513634      -29.6353550249  TIP3      4621            0.0000000000
     36182      4813  TIP3      H1             -6.1339379608      -10.4076749024      -30.0248069691  TIP3      4621            0.0000000000
     36183      4813  TIP3      H2             -7.3309368368      -10.4238108145      -29.0920785277  TIP3      4621            0.0000000000
     36184      4814  TIP3      OH2            -9.2708933110      -14.0550108024      -34.7890718652  TIP3      4622            0.0000000000
     36185      4814  TIP3      H1            -10.1947433220      -13.9952708761      -34.4910308279  TIP3      4622            0.0000000000
     36186      4814  TIP3      H2             -8.8076657570      -14.4178481278      -34.0076013115  TIP3      4622            0.0000000000
     36187      4815  TIP3      OH2           -14.9606444246      -12.4361094295      -35.8204611272  TIP3      4623            0.0000000000
     36188      4815  TIP3      H1            -15.6885173203      -12.1023114712      -36.3955151755  TIP3      4623            0.0000000000
     36189      4815  TIP3      H2            -14.6623861599      -13.2590495604      -36.2599791398  TIP3      4623            0.0000000000
     36190      4816  TIP3      OH2           -11.6515000942      -12.2291480101      -38.5133723448  TIP3      4624            0.0000000000
     36191      4816  TIP3      H1            -10.7212521998      -12.1089874749      -38.2408730062  TIP3      4624            0.0000000000
     36192      4816  TIP3      H2            -11.7386575820      -11.6679983141      -39.3117668423  TIP3      4624            0.0000000000
     36193      4817  TIP3      OH2            -5.2161693636      -14.7862783879      -31.7622407609  TIP3      4625            0.0000000000
     36194      4817  TIP3      H1             -6.0475262249      -14.7464848195      -31.2510211833  TIP3      4625            0.0000000000
     36195      4817  TIP3      H2             -5.4491036867      -15.2506350930      -32.5838654765  TIP3      4625            0.0000000000
     36196      4818  TIP3      OH2           -12.2106661751      -11.1247913059      -40.9614712336  TIP3      4626            0.0000000000
     36197      4818  TIP3      H1            -12.8323741624      -11.2069523469      -41.7159502715  TIP3      4626            0.0000000000
     36198      4818  TIP3      H2            -11.4644506996      -10.6462216002      -41.3788380423  TIP3      4626            0.0000000000
     36199      4819  TIP3      OH2            -2.3825310558        1.5017167045      -25.4589153444  TIP3      4627            0.0000000000
     36200      4819  TIP3      H1             -1.9721733515        1.5772485719      -26.3441127947  TIP3      4627            0.0000000000
     36201      4819  TIP3      H2             -1.5768369514        1.3072251711      -24.9325309388  TIP3      4627            0.0000000000
     36202      4820  TIP3      OH2           -14.5541977348       -6.3261911431      -25.8004696092  TIP3      4628            0.0000000000
     36203      4820  TIP3      H1            -13.8574102616       -6.3654911961      -25.0932951287  TIP3      4628            0.0000000000
     36204      4820  TIP3      H2            -15.3579785439       -6.5491310933      -25.2753572023  TIP3      4628            0.0000000000
     36205      4821  TIP3      OH2            -8.8081493710      -11.1103257872      -33.4311224115  TIP3      4629            0.0000000000
     36206      4821  TIP3      H1             -7.8396391657      -11.2177611252      -33.5053268627  TIP3      4629            0.0000000000
     36207      4821  TIP3      H2             -9.0168974931      -11.6525594758      -32.6573664862  TIP3      4629            0.0000000000
     36208      4822  TIP3      OH2           -13.9026362596      -14.9395180240      -36.4721708033  TIP3      4630            0.0000000000
     36209      4822  TIP3      H1            -14.3451721356      -15.6520099899      -35.9521169599  TIP3      4630            0.0000000000
     36210      4822  TIP3      H2            -13.6403933505      -15.4190821828      -37.2714190370  TIP3      4630            0.0000000000
     36211      4823  TIP3      OH2            -9.8045522512      -12.9771203145      -30.7769390403  TIP3      4631            0.0000000000
     36212      4823  TIP3      H1            -10.6098300279      -12.4241556094      -30.7088562931  TIP3      4631            0.0000000000
     36213      4823  TIP3      H2             -9.1610845106      -12.4773478186      -30.2670960222  TIP3      4631            0.0000000000
     36214      4824  TIP3      OH2            -9.1818547609       -6.5252452258      -38.5756863823  TIP3      4632            0.0000000000
     36215      4824  TIP3      H1             -9.9025047354       -7.0379133973      -39.0072092377  TIP3      4632            0.0000000000
     36216      4824  TIP3      H2             -9.6208998514       -6.2422262035      -37.7400995672  TIP3      4632            0.0000000000
     36217      4825  TIP3      OH2            -2.0307699809       -7.8905986867      -30.5868544180  TIP3      4633            0.0000000000
     36218      4825  TIP3      H1             -1.5508052911       -7.0520740708      -30.7517441344  TIP3      4633            0.0000000000
     36219      4825  TIP3      H2             -2.9383360311       -7.6344972819      -30.8441105279  TIP3      4633            0.0000000000
     36220      4826  TIP3      OH2            -5.2233693619      -13.5636952828      -40.7194932112  TIP3      4634            0.0000000000
     36221      4826  TIP3      H1             -6.0385673287      -13.4707222505      -41.2514600303  TIP3      4634            0.0000000000
     36222      4826  TIP3      H2             -5.1768649167      -12.7005846471      -40.2732830029  TIP3      4634            0.0000000000
     36223      4827  TIP3      OH2            -7.9969064844       -5.9263062971      -27.6954821695  TIP3      4635            0.0000000000
     36224      4827  TIP3      H1             -8.3691641084       -6.0886624604      -26.8177180729  TIP3      4635            0.0000000000
     36225      4827  TIP3      H2             -8.1252731156       -4.9487562116      -27.7509411694  TIP3      4635            0.0000000000
     36226      4828  TIP3      OH2            -4.6511965016      -11.4467004123      -38.8742552943  TIP3      4636            0.0000000000
     36227      4828  TIP3      H1             -3.9412399282      -11.6761693155      -38.2437180099  TIP3      4636            0.0000000000
     36228      4828  TIP3      H2             -4.3554910676      -10.5969529506      -39.2414977577  TIP3      4636            0.0000000000
     36229      4829  TIP3      OH2           -14.0819629029       -7.0111846869      -33.4038214328  TIP3      4637            0.0000000000
     36230      4829  TIP3      H1            -13.4895032137       -7.1177400561      -34.1829207898  TIP3      4637            0.0000000000
     36231      4829  TIP3      H2            -13.7204575710       -7.6589490021      -32.7828737499  TIP3      4637            0.0000000000
     36232      4830  TIP3      OH2            -7.1814311475       -5.1139804210      -39.6265367720  TIP3      4638            0.0000000000
     36233      4830  TIP3      H1             -7.5890998299       -4.2439142448      -39.4226417047  TIP3      4638            0.0000000000
     36234      4830  TIP3      H2             -7.8749473065       -5.7298649676      -39.2851889483  TIP3      4638            0.0000000000
     36235      4831  TIP3      OH2           -16.8951088155       -8.8262400439      -27.8080411351  TIP3      4639            0.0000000000
     36236      4831  TIP3      H1            -17.2233149635       -9.3185833561      -27.0220436199  TIP3      4639            0.0000000000
     36237      4831  TIP3      H2            -17.4678251624       -9.1520830691      -28.5261171898  TIP3      4639            0.0000000000
     36238      4832  TIP3      OH2            -9.9112118926       -9.0449798396      -26.0854423048  TIP3      4640            0.0000000000
     36239      4832  TIP3      H1            -10.6844029631       -9.5671303456      -26.3429437595  TIP3      4640            0.0000000000
     36240      4832  TIP3      H2             -9.2266880172       -9.6961466727      -25.9429949318  TIP3      4640            0.0000000000
     36241      4833  TIP3      OH2            -5.0375085159       -3.8745672677      -27.3897487777  TIP3      4641            0.0000000000
     36242      4833  TIP3      H1             -5.7064111101       -3.4454116897      -27.9379187033  TIP3      4641            0.0000000000
     36243      4833  TIP3      H2             -5.2674392238       -3.4771309423      -26.5224353763  TIP3      4641            0.0000000000
     36244      4834  TIP3      OH2             0.2322017876      -11.6528656458      -39.1698945218  TIP3      4642            0.0000000000
     36245      4834  TIP3      H1             -0.4725052960      -11.7361628054      -39.8485536806  TIP3      4642            0.0000000000
     36246      4834  TIP3      H2              0.3880308310      -10.6873025343      -39.2491503624  TIP3      4642            0.0000000000
     36247      4835  TIP3      OH2             0.4726529132       -6.0321079104      -26.3422406016  TIP3      4643            0.0000000000
     36248      4835  TIP3      H1             -0.2904966948       -5.4216537342      -26.2909581909  TIP3      4643            0.0000000000
     36249      4835  TIP3      H2              0.7563657599       -6.0202782019      -27.2849810367  TIP3      4643            0.0000000000
     36250      4836  TIP3      OH2            -1.7317952928       -2.6935923154      -38.9460227873  TIP3      4644            0.0000000000
     36251      4836  TIP3      H1             -1.7711561338       -3.5497835278      -38.5070396985  TIP3      4644            0.0000000000
     36252      4836  TIP3      H2             -1.4179897053       -2.8862655099      -39.8441046841  TIP3      4644            0.0000000000
     36253      4837  TIP3      OH2            -4.3377500969       -7.8582379058      -32.0411015172  TIP3      4645            0.0000000000
     36254      4837  TIP3      H1             -5.2464859914       -8.1857315854      -32.1388874774  TIP3      4645            0.0000000000
     36255      4837  TIP3      H2             -3.8314365925       -8.6390537361      -32.3407151312  TIP3      4645            0.0000000000
     36256      4838  TIP3      OH2           -11.8556238559       -3.4936187723      -35.5013945717  TIP3      4646            0.0000000000
     36257      4838  TIP3      H1            -11.5890127259       -2.5747935410      -35.7332226227  TIP3      4646            0.0000000000
     36258      4838  TIP3      H2            -12.6748678873       -3.5672550440      -36.0064032994  TIP3      4646            0.0000000000
     36259      4839  TIP3      OH2           -15.7152085505       -8.7693790379      -41.0740141011  TIP3      4647            0.0000000000
     36260      4839  TIP3      H1            -15.2033197415       -8.1502580344      -40.5118427754  TIP3      4647            0.0000000000
     36261      4839  TIP3      H2            -16.6202310999       -8.6871703854      -40.7355687944  TIP3      4647            0.0000000000
     36262      4840  TIP3      OH2           -10.4280816255       -5.7796371910      -36.1963620336  TIP3      4648            0.0000000000
     36263      4840  TIP3      H1            -10.9412882985       -4.9623589737      -36.0225599334  TIP3      4648            0.0000000000
     36264      4840  TIP3      H2            -10.7958333271       -6.3993058667      -35.5470431563  TIP3      4648            0.0000000000
     36265      4841  TIP3      OH2            -9.7000710093       -1.5393402203      -29.1153261189  TIP3      4649            0.0000000000
     36266      4841  TIP3      H1             -9.0166912914       -0.9847119097      -29.5563621739  TIP3      4649            0.0000000000
     36267      4841  TIP3      H2             -9.1634462295       -2.0165872982      -28.4468027816  TIP3      4649            0.0000000000
     36268      4842  TIP3      OH2           -11.4236879034       -0.9788244119      -36.5818115105  TIP3      4650            0.0000000000
     36269      4842  TIP3      H1            -12.3886034266       -0.8398479909      -36.4507343034  TIP3      4650            0.0000000000
     36270      4842  TIP3      H2            -11.0879414320       -0.1516140456      -36.1576404778  TIP3      4650            0.0000000000
     36271      4843  TIP3      OH2            -6.5850637196       -5.6989853433      -30.1615832715  TIP3      4651            0.0000000000
     36272      4843  TIP3      H1             -6.9138903270       -6.0190993223      -29.2836559278  TIP3      4651            0.0000000000
     36273      4843  TIP3      H2             -5.8789017838       -6.3327454019      -30.3756276125  TIP3      4651            0.0000000000
     36274      4844  TIP3      OH2            -3.9397053902       -4.4664900390      -40.6411926631  TIP3      4652            0.0000000000
     36275      4844  TIP3      H1             -3.6880871038       -4.9933806241      -39.8550747225  TIP3      4652            0.0000000000
     36276      4844  TIP3      H2             -4.8647954291       -4.7526946632      -40.7280192979  TIP3      4652            0.0000000000
     36277      4845  TIP3      OH2            -3.8153830796       -0.8815170600      -27.4747086625  TIP3      4653            0.0000000000
     36278      4845  TIP3      H1             -4.2140383023       -1.7739145278      -27.4453441758  TIP3      4653            0.0000000000
     36279      4845  TIP3      H2             -3.2099557165       -0.9657518726      -28.2319875800  TIP3      4653            0.0000000000
     36280      4846  TIP3      OH2             0.4428037658       -0.3666040065      -40.6292817765  TIP3      4654            0.0000000000
     36281      4846  TIP3      H1              0.9595630685        0.3406565594      -41.0438943376  TIP3      4654            0.0000000000
     36282      4846  TIP3      H2             -0.2236364669        0.1787233077      -40.1494963342  TIP3      4654            0.0000000000
     36283      4847  TIP3      OH2           -15.2501216158      -13.9763775946      -28.2437432083  TIP3      4655            0.0000000000
     36284      4847  TIP3      H1            -15.7266015239      -13.4470525835      -27.5777385608  TIP3      4655            0.0000000000
     36285      4847  TIP3      H2            -15.4229092644      -14.8751638809      -27.9051389118  TIP3      4655            0.0000000000
     36286      4848  TIP3      OH2            -3.1639465418       -5.9820645101      -38.5491826988  TIP3      4656            0.0000000000
     36287      4848  TIP3      H1             -3.4265151816       -6.7701734676      -38.0180094202  TIP3      4656            0.0000000000
     36288      4848  TIP3      H2             -2.1964708600       -6.0298768737      -38.4581772688  TIP3      4656            0.0000000000
     36289      4849  TIP3      OH2           -15.6112523311       -2.1814399780      -29.9863601456  TIP3      4657            0.0000000000
     36290      4849  TIP3      H1            -15.0689872542       -2.9783434792      -29.8669944976  TIP3      4657            0.0000000000
     36291      4849  TIP3      H2            -15.6378665974       -1.8475878132      -29.0805018997  TIP3      4657            0.0000000000
     36292      4850  TIP3      OH2           -11.1511423443       -4.0762115465      -39.9731362282  TIP3      4658            0.0000000000
     36293      4850  TIP3      H1            -10.5267920739       -4.4507495939      -39.3345429746  TIP3      4658            0.0000000000
     36294      4850  TIP3      H2            -10.9903596268       -3.1073046663      -39.8373239780  TIP3      4658            0.0000000000
     36295      4851  TIP3      OH2           -14.5209875067       -6.8048219257      -39.6103291007  TIP3      4659            0.0000000000
     36296      4851  TIP3      H1            -15.2003272950       -6.3902597881      -39.0334516175  TIP3      4659            0.0000000000
     36297      4851  TIP3      H2            -14.0273830422       -6.0331984046      -39.9497990531  TIP3      4659            0.0000000000
     36298      4852  TIP3      OH2            -6.7731832027      -14.1179600999      -29.1569982873  TIP3      4660            0.0000000000
     36299      4852  TIP3      H1             -6.0403382464      -13.8767818589      -28.5654483918  TIP3      4660            0.0000000000
     36300      4852  TIP3      H2             -6.9536936373      -15.0471156167      -28.8992489624  TIP3      4660            0.0000000000
     36301      4853  TIP3      OH2            -6.1111075674      -14.5044221363      -38.2093527957  TIP3      4661            0.0000000000
     36302      4853  TIP3      H1             -5.6236642348      -14.2665444173      -39.0199723131  TIP3      4661            0.0000000000
     36303      4853  TIP3      H2             -5.4537156424      -14.2711633008      -37.5184345489  TIP3      4661            0.0000000000
     36304      4854  TIP3      OH2            -8.0955647074       -2.6433535709      -38.9989744824  TIP3      4662            0.0000000000
     36305      4854  TIP3      H1             -8.7964932031       -1.9690832160      -38.9822261590  TIP3      4662            0.0000000000
     36306      4854  TIP3      H2             -7.4960662492       -2.3011659160      -39.6986495581  TIP3      4662            0.0000000000
     36307      4855  TIP3      OH2            -9.0236362463      -12.5460329406      -37.1327977829  TIP3      4663            0.0000000000
     36308      4855  TIP3      H1             -8.2027021798      -12.0155914632      -37.0785249473  TIP3      4663            0.0000000000
     36309      4855  TIP3      H2             -9.0782620363      -12.9859839015      -36.2611973090  TIP3      4663            0.0000000000
     36310      4856  TIP3      OH2            -8.0207781081      -11.6326016794      -27.8868981886  TIP3      4664            0.0000000000
     36311      4856  TIP3      H1             -8.3028707812      -11.6167458808      -26.9599965962  TIP3      4664            0.0000000000
     36312      4856  TIP3      H2             -7.6478955169      -12.5312560398      -27.9438420520  TIP3      4664            0.0000000000
     36313      4857  TIP3      OH2            -7.9901233290      -15.9506632469      -36.8155862606  TIP3      4665            0.0000000000
     36314      4857  TIP3      H1             -8.3427384895      -15.3178786711      -36.1599197148  TIP3      4665            0.0000000000
     36315      4857  TIP3      H2             -7.2145622164      -15.4331051101      -37.1526926785  TIP3      4665            0.0000000000
     36316      4858  TIP3      OH2           -10.8985420391       -1.5144592440      -39.3106786893  TIP3      4666            0.0000000000
     36317      4858  TIP3      H1            -10.6262241119       -0.6549669713      -39.6974269821  TIP3      4666            0.0000000000
     36318      4858  TIP3      H2            -11.2143020130       -1.2114346745      -38.4354789977  TIP3      4666            0.0000000000
     36319      4859  TIP3      OH2           -12.3476955239      -14.7240120583      -39.4493638606  TIP3      4667            0.0000000000
     36320      4859  TIP3      H1            -12.3368803436      -13.8322851178      -39.0403415289  TIP3      4667            0.0000000000
     36321      4859  TIP3      H2            -11.5034093762      -15.0846958221      -39.1187379910  TIP3      4667            0.0000000000
     36322      4860  TIP3      OH2            -2.2701554747      -14.2249514999      -27.2513981772  TIP3      4668            0.0000000000
     36323      4860  TIP3      H1             -3.1984354716      -14.0342326899      -27.5191152867  TIP3      4668            0.0000000000
     36324      4860  TIP3      H2             -1.7949443419      -14.1372312398      -28.1056446377  TIP3      4668            0.0000000000
     36325      4861  TIP3      OH2            -3.1755363509      -10.1854716284      -33.2213915270  TIP3      4669            0.0000000000
     36326      4861  TIP3      H1             -3.9905409568      -10.7139656968      -33.2708649895  TIP3      4669            0.0000000000
     36327      4861  TIP3      H2             -2.5610776010      -10.7609142837      -32.7178804520  TIP3      4669            0.0000000000
     36328      4862  TIP3      OH2           -13.8529749703       -4.2531814717      -40.8686723161  TIP3      4670            0.0000000000
     36329      4862  TIP3      H1            -13.0267704860       -3.9790113633      -40.4198786948  TIP3      4670            0.0000000000
     36330      4862  TIP3      H2            -13.4789519129       -4.7697021681      -41.6038139839  TIP3      4670            0.0000000000
     36331      4863  TIP3      OH2           -15.6378467532      -11.4200298770      -41.6978833115  TIP3      4671            0.0000000000
     36332      4863  TIP3      H1            -15.4812641955      -10.4856644587      -41.4644857431  TIP3      4671            0.0000000000
     36333      4863  TIP3      H2            -16.4423302541      -11.3747450317      -42.2343661299  TIP3      4671            0.0000000000
     36334      4864  TIP3      OH2            -2.7446213559       -0.4289609363      -31.7160413404  TIP3      4672            0.0000000000
     36335      4864  TIP3      H1             -2.3830353286        0.3135782993      -32.2442468764  TIP3      4672            0.0000000000
     36336      4864  TIP3      H2             -2.0812761999       -1.1128177534      -31.9847156232  TIP3      4672            0.0000000000
     36337      4865  TIP3      OH2           -14.9351809797      -16.8776519449      -32.7417336596  TIP3      4673            0.0000000000
     36338      4865  TIP3      H1            -14.9245853483      -17.0269527108      -33.7131839416  TIP3      4673            0.0000000000
     36339      4865  TIP3      H2            -15.1175369754      -17.7974167776      -32.4396248911  TIP3      4673            0.0000000000
     36340      4866  TIP3      OH2           -16.2024448293       -2.7923734355      -36.8210409070  TIP3      4674            0.0000000000
     36341      4866  TIP3      H1            -17.0404927106       -2.4297317865      -36.5075418594  TIP3      4674            0.0000000000
     36342      4866  TIP3      H2            -16.0910085384       -2.2793594770      -37.6554034517  TIP3      4674            0.0000000000
     36343      4867  TIP3      OH2           -16.7000714896       -0.0689516983      -25.4685420527  TIP3      4675            0.0000000000
     36344      4867  TIP3      H1            -15.8103523460       -0.4354661163      -25.3649307709  TIP3      4675            0.0000000000
     36345      4867  TIP3      H2            -17.2464612605       -0.8709156818      -25.4874491587  TIP3      4675            0.0000000000
     36346      4868  TIP3      OH2           -12.2458143176       -1.1841909572      -23.8250506117  TIP3      4676            0.0000000000
     36347      4868  TIP3      H1            -11.5417304587       -1.6763456402      -23.3867852435  TIP3      4676            0.0000000000
     36348      4868  TIP3      H2            -12.3275870622       -1.6791709103      -24.6657808890  TIP3      4676            0.0000000000
     36349      4869  TIP3      OH2            -7.1068511121       -1.6317701053      -41.3621785003  TIP3      4677            0.0000000000
     36350      4869  TIP3      H1             -7.6978278593       -2.2061481424      -41.9000749734  TIP3      4677            0.0000000000
     36351      4869  TIP3      H2             -6.4099434790       -1.4347551507      -42.0116605608  TIP3      4677            0.0000000000
     36352      4870  TIP3      OH2            -5.5100919354       -2.9302497596      -24.9441870227  TIP3      4678            0.0000000000
     36353      4870  TIP3      H1             -6.0141212401       -3.6656514890      -24.5267756855  TIP3      4678            0.0000000000
     36354      4870  TIP3      H2             -4.6390963084       -3.0900315725      -24.5654192430  TIP3      4678            0.0000000000
     36355      4871  TIP3      OH2            -3.0682385841       -2.0707557780      -42.2280329101  TIP3      4679            0.0000000000
     36356      4871  TIP3      H1             -3.2613503216       -2.8919513249      -41.7190653129  TIP3      4679            0.0000000000
     36357      4871  TIP3      H2             -2.1014646429       -2.0715026758      -42.2217062624  TIP3      4679            0.0000000000
     36358      4872  TIP3      OH2           -16.9846513234       -6.6696753725      -24.6853898758  TIP3      4680            0.0000000000
     36359      4872  TIP3      H1            -17.5145848662       -7.4677729001      -24.5748027984  TIP3      4680            0.0000000000
     36360      4872  TIP3      H2            -17.4307992208       -6.2330158847      -25.4361830955  TIP3      4680            0.0000000000
     36361      4873  TIP3      OH2           -12.0455703881       -6.2028552337      -42.2323088358  TIP3      4681            0.0000000000
     36362      4873  TIP3      H1            -11.4152287910       -6.2587002168      -41.5010608472  TIP3      4681            0.0000000000
     36363      4873  TIP3      H2            -11.6854178979       -6.8887341370      -42.8328590484  TIP3      4681            0.0000000000
     36364      4874  TIP3      OH2            -9.9501236517       -6.4354276821      -25.3422449100  TIP3      4682            0.0000000000
     36365      4874  TIP3      H1            -10.1979345481       -5.8412803263      -26.0887039767  TIP3      4682            0.0000000000
     36366      4874  TIP3      H2             -9.9937169537       -7.3249090928      -25.7538522088  TIP3      4682            0.0000000000
     36367      4875  TIP3      OH2            -4.6860658137       -6.5799414560      -27.2500802839  TIP3      4683            0.0000000000
     36368      4875  TIP3      H1             -3.8366432062       -6.2751112772      -27.6519440574  TIP3      4683            0.0000000000
     36369      4875  TIP3      H2             -5.1443359771       -5.7232408828      -27.2275797783  TIP3      4683            0.0000000000
     36370      4876  TIP3      OH2           -15.6617704836       -9.3093393633      -24.6581242479  TIP3      4684            0.0000000000
     36371      4876  TIP3      H1            -15.6619480659      -10.0800660468      -24.0595945593  TIP3      4684            0.0000000000
     36372      4876  TIP3      H2            -15.8068468192       -8.5895788139      -24.0195471667  TIP3      4684            0.0000000000
     36373      4877  TIP3      OH2           -11.1164409778       -7.9023891425      -39.9137571043  TIP3      4685            0.0000000000
     36374      4877  TIP3      H1            -11.8534541936       -8.3813850629      -39.4966825419  TIP3      4685            0.0000000000
     36375      4877  TIP3      H2            -10.7388473215       -8.5641860853      -40.5134791238  TIP3      4685            0.0000000000
     36376      4878  TIP3      OH2           -12.3190536706      -10.2890038813      -28.0234701213  TIP3      4686            0.0000000000
     36377      4878  TIP3      H1            -12.9542502849       -9.5906460807      -27.7424294317  TIP3      4686            0.0000000000
     36378      4878  TIP3      H2            -11.5863217561       -9.7594633633      -28.3958044868  TIP3      4686            0.0000000000
     36379      4879  TIP3      OH2            -9.9537101784       -9.8537651433      -42.0385099889  TIP3      4687            0.0000000000
     36380      4879  TIP3      H1             -9.5410121685       -9.8710523224      -42.9259601290  TIP3      4687            0.0000000000
     36381      4879  TIP3      H2             -9.1442849665       -9.7537818578      -41.4755108604  TIP3      4687            0.0000000000
     36382      4880  TIP3      OH2            -1.0852587918       -7.0292697072       42.4657227826  TIP3      4688            0.0000000000
     36383      4880  TIP3      H1             -1.5643347823       -6.7679782530       41.6585773379  TIP3      4688            0.0000000000
     36384      4880  TIP3      H2             -0.7812881007       -6.1851168534       42.8292307826  TIP3      4688            0.0000000000
     36385      4881  TIP3      OH2           -11.3075682582      -12.6022111662      -26.9393725514  TIP3      4689            0.0000000000
     36386      4881  TIP3      H1            -11.3557506375      -13.3540181028      -27.5651779359  TIP3      4689            0.0000000000
     36387      4881  TIP3      H2            -11.4350003356      -11.8300111089      -27.5385529743  TIP3      4689            0.0000000000
     36388      4882  TIP3      OH2           -11.1204153313      -14.6146870598      -29.1012351368  TIP3      4690            0.0000000000
     36389      4882  TIP3      H1            -10.5247334584      -14.1546611563      -29.7401886269  TIP3      4690            0.0000000000
     36390      4882  TIP3      H2            -11.9838924801      -14.4643945558      -29.5468508497  TIP3      4690            0.0000000000
     36391      4883  TIP3      OH2           -10.0010902170       -8.7270389737      -28.8864926263  TIP3      4691            0.0000000000
     36392      4883  TIP3      H1             -9.1226203312       -8.3253311058      -28.9439198566  TIP3      4691            0.0000000000
     36393      4883  TIP3      H2            -10.5555868768       -8.0256314185      -29.2893173981  TIP3      4691            0.0000000000
     36394      4884  TIP3      OH2            -4.9064526102      -11.6375990829      -24.0286799142  TIP3      4692            0.0000000000
     36395      4884  TIP3      H1             -4.6952757522      -12.5667686852      -24.1997276991  TIP3      4692            0.0000000000
     36396      4884  TIP3      H2             -4.0730317966      -11.1910236439      -24.2337377828  TIP3      4692            0.0000000000
     36397      4885  TIP3      OH2            -3.9955734610       -8.6648212759      -25.8812072358  TIP3      4693            0.0000000000
     36398      4885  TIP3      H1             -4.3664434134       -7.8408328887      -26.2863524052  TIP3      4693            0.0000000000
     36399      4885  TIP3      H2             -3.0288533474       -8.4863174097      -25.9719660426  TIP3      4693            0.0000000000
     36400      4886  TIP3      OH2           -12.7050771993      -11.6911538538      -24.4045697871  TIP3      4694            0.0000000000
     36401      4886  TIP3      H1            -13.6680258478      -11.8455780215      -24.3416426566  TIP3      4694            0.0000000000
     36402      4886  TIP3      H2            -12.4310653195      -12.0974316504      -25.2420012621  TIP3      4694            0.0000000000
     36403      4887  TIP3      OH2           -10.1738145659      -17.1013578392      -29.0989317457  TIP3      4695            0.0000000000
     36404      4887  TIP3      H1            -10.5110980499      -16.1825447499      -28.9978380095  TIP3      4695            0.0000000000
     36405      4887  TIP3      H2            -11.0098593676      -17.5792239545      -29.2078909835  TIP3      4695            0.0000000000
     36406      4888  TIP3      OH2            -9.1252049022      -13.1259375589      -25.1869900826  TIP3      4696            0.0000000000
     36407      4888  TIP3      H1             -9.6636806092      -13.3179945385      -24.3814774144  TIP3      4696            0.0000000000
     36408      4888  TIP3      H2             -9.8473306222      -13.0849316115      -25.8494882222  TIP3      4696            0.0000000000
     36409      4889  TIP3      OH2            -6.4372081243      -13.9058859571      -25.8716278690  TIP3      4697            0.0000000000
     36410      4889  TIP3      H1             -7.2848078928      -13.6423886575      -25.4572085588  TIP3      4697            0.0000000000
     36411      4889  TIP3      H2             -6.0470172417      -14.4905322910      -25.1801177716  TIP3      4697            0.0000000000
     36412      4890  TIP3      OH2            -4.8158330687      -15.0103690203      -24.1041717657  TIP3      4698            0.0000000000
     36413      4890  TIP3      H1             -4.9346224860      -15.9869047229      -24.0462572697  TIP3      4698            0.0000000000
     36414      4890  TIP3      H2             -4.8538587247      -14.7721665286      -23.1510688647  TIP3      4698            0.0000000000
     36415      4891  TIP3      OH2           -15.0671582399      -13.7117491706      -24.6958114062  TIP3      4699            0.0000000000
     36416      4891  TIP3      H1            -14.4647723678      -14.3730800189      -25.0760582832  TIP3      4699            0.0000000000
     36417      4891  TIP3      H2            -15.0088266954      -13.9274843660      -23.7341780428  TIP3      4699            0.0000000000
     36418      4892  TIP3      OH2           -10.0039275510      -17.1090370592      -26.2666744555  TIP3      4700            0.0000000000
     36419      4892  TIP3      H1             -9.3816823039      -17.8543956352      -26.1697704424  TIP3      4700            0.0000000000
     36420      4892  TIP3      H2            -10.2118675288      -17.1855940687      -27.2211558232  TIP3      4700            0.0000000000
     36421      4893  TIP3      OH2           -10.5179205764      -16.7243827748      -23.4630806015  TIP3      4701            0.0000000000
     36422      4893  TIP3      H1            -10.4136935772      -16.8799455831      -24.4198858049  TIP3      4701            0.0000000000
     36423      4893  TIP3      H2            -10.6004185291      -15.7568822453      -23.4257340277  TIP3      4701            0.0000000000
     36424      4894  TIP3      OH2           -10.3735362230        0.8659536796      -40.4430469704  TIP3      4702            0.0000000000
     36425      4894  TIP3      H1             -9.5437380777        1.3592961341      -40.3408334239  TIP3      4702            0.0000000000
     36426      4894  TIP3      H2            -10.4049366174        0.7811970550      -41.4100033015  TIP3      4702            0.0000000000
     36427      4895  TIP3      OH2           -16.7941874992       -4.5676931832      -41.1185211278  TIP3      4703            0.0000000000
     36428      4895  TIP3      H1            -15.8160981169       -4.5284825127      -41.0640269153  TIP3      4703            0.0000000000
     36429      4895  TIP3      H2            -16.8959754519       -4.9280768436      -42.0121112601  TIP3      4703            0.0000000000
     36430      4896  TIP3      OH2           -17.7731194328        0.3794804064      -36.3386920742  TIP3      4704            0.0000000000
     36431      4896  TIP3      H1            -18.6217667442       -0.0622612335      -36.5704377220  TIP3      4704            0.0000000000
     36432      4896  TIP3      H2            -17.4961374439       -0.1330202808      -35.5547587607  TIP3      4704            0.0000000000
     36433      4897  TIP3      OH2           -16.9836931325       -1.1869086319      -34.2880281127  TIP3      4705            0.0000000000
     36434      4897  TIP3      H1            -17.5113531089       -1.8938777394      -33.8790864976  TIP3      4705            0.0000000000
     36435      4897  TIP3      H2            -16.3545575330       -0.9445469724      -33.5737626337  TIP3      4705            0.0000000000
     36436      4898  TIP3      OH2             0.4828788450        0.4723126719      -31.4669790875  TIP3      4706            0.0000000000
     36437      4898  TIP3      H1              0.4959874379       -0.3848728707      -31.0146963934  TIP3      4706            0.0000000000
     36438      4898  TIP3      H2              1.3796752793        0.8177896786      -31.3723080951  TIP3      4706            0.0000000000
     36439      4899  TIP3      OH2            -0.1689771665       -0.5923005778      -28.6414162042  TIP3      4707            0.0000000000
     36440      4899  TIP3      H1             -0.7425619090       -1.0863600653      -29.2766802807  TIP3      4707            0.0000000000
     36441      4899  TIP3      H2              0.0172066511       -1.3162445486      -28.0266513881  TIP3      4707            0.0000000000
     36442      4900  TIP3      OH2            -1.9203585845       -5.7429532253      -24.0122516046  TIP3      4708            0.0000000000
     36443      4900  TIP3      H1             -2.1214411637       -5.5167094581      -23.0835572028  TIP3      4708            0.0000000000
     36444      4900  TIP3      H2             -0.9768206466       -5.5658231410      -24.0762705151  TIP3      4708            0.0000000000
     36445      4901  TIP3      OH2            -0.3384241144       -6.6400516487      -38.5556967909  TIP3      4709            0.0000000000
     36446      4901  TIP3      H1              0.5070586171       -6.1420365713      -38.4600797934  TIP3      4709            0.0000000000
     36447      4901  TIP3      H2             -0.2832354276       -7.2067483642      -37.7556311422  TIP3      4709            0.0000000000
     36448      4902  TIP3      OH2             0.0411303547       -8.3882147194      -36.1625781411  TIP3      4710            0.0000000000
     36449      4902  TIP3      H1             -0.7959130685       -8.7731618426      -35.8176248591  TIP3      4710            0.0000000000
     36450      4902  TIP3      H2              0.6117386011       -8.4114151947      -35.3676058588  TIP3      4710            0.0000000000
     36451      4903  TIP3      OH2            -0.0592826347       -5.8651493155      -30.9971304651  TIP3      4711            0.0000000000
     36452      4903  TIP3      H1              0.4173306874       -6.3717004921      -31.6870052694  TIP3      4711            0.0000000000
     36453      4903  TIP3      H2              0.0731346024       -4.9441937744      -31.2802327146  TIP3      4711            0.0000000000
     36454      4904  TIP3      OH2            -1.8008286290       -2.6181386805      -29.5915832029  TIP3      4712            0.0000000000
     36455      4904  TIP3      H1             -1.7609046516       -2.9696367801      -28.6741657029  TIP3      4712            0.0000000000
     36456      4904  TIP3      H2             -2.3331867740       -3.2704786200      -30.0574954993  TIP3      4712            0.0000000000
     36457      4905  TIP3      OH2             0.1334022393       -8.8791119704      -40.1193657207  TIP3      4713            0.0000000000
     36458      4905  TIP3      H1             -0.5670765223       -8.8361577646      -40.7871348039  TIP3      4713            0.0000000000
     36459      4905  TIP3      H2             -0.0862614530       -8.1186003995      -39.5358476293  TIP3      4713            0.0000000000
     36460      4906  TIP3      OH2            -1.8286118910      -11.6587173118      -41.2285698080  TIP3      4714            0.0000000000
     36461      4906  TIP3      H1             -1.1468614594      -11.2725106665      -41.8014640813  TIP3      4714            0.0000000000
     36462      4906  TIP3      H2             -1.7913787375      -12.5960142746      -41.5475427842  TIP3      4714            0.0000000000
     36463      4907  TIP3      OH2            -2.1438244395       -9.7653291301      -35.6007175600  TIP3      4715            0.0000000000
     36464      4907  TIP3      H1             -2.2818843906      -10.6710228849      -35.9209158092  TIP3      4715            0.0000000000
     36465      4907  TIP3      H2             -2.3964801631       -9.8842036238      -34.6533573110  TIP3      4715            0.0000000000
     36466      4908  TIP3      OH2           -17.1554825967       -7.7164769448      -31.8040535163  TIP3      4716            0.0000000000
     36467      4908  TIP3      H1            -17.1462807140       -8.1037222558      -32.7054746924  TIP3      4716            0.0000000000
     36468      4908  TIP3      H2            -16.2678087990       -7.9896172686      -31.4637301267  TIP3      4716            0.0000000000
     36469      4909  TIP3      OH2            -1.2885291056       -8.4592759873      -25.7812161740  TIP3      4717            0.0000000000
     36470      4909  TIP3      H1             -0.6547159797       -8.9144981595      -25.2067983387  TIP3      4717            0.0000000000
     36471      4909  TIP3      H2             -0.8703194417       -7.5737110003      -25.8207208278  TIP3      4717            0.0000000000
     36472      4910  TIP3      OH2             0.3338713565      -10.7879098695      -25.8950856486  TIP3      4718            0.0000000000
     36473      4910  TIP3      H1             -0.6413634618      -10.7154265311      -25.9074746677  TIP3      4718            0.0000000000
     36474      4910  TIP3      H2              0.4840950232      -11.7489465046      -25.8567658657  TIP3      4718            0.0000000000
     36475      4911  TIP3      OH2            -1.9524557372      -13.9505133741      -42.4990255897  TIP3      4719            0.0000000000
     36476      4911  TIP3      H1             -1.4955178122      -14.6986836057      -42.0754717242  TIP3      4719            0.0000000000
     36477      4911  TIP3      H2             -2.8936564113      -14.1901196615      -42.4668766727  TIP3      4719            0.0000000000
     36478      4912  TIP3      OH2            -2.6036449309      -12.2463780270      -37.2482035230  TIP3      4720            0.0000000000
     36479      4912  TIP3      H1             -2.3112624685      -13.1318066270      -36.9288148856  TIP3      4720            0.0000000000
     36480      4912  TIP3      H2             -2.1758371357      -12.2582792762      -38.1181586270  TIP3      4720            0.0000000000
     36481      4913  TIP3      OH2            -1.5844785992      -11.7837547666      -31.8288922599  TIP3      4721            0.0000000000
     36482      4913  TIP3      H1             -0.5941788380      -11.6977587786      -31.8855648083  TIP3      4721            0.0000000000
     36483      4913  TIP3      H2             -1.6983624490      -11.7217083923      -30.8593578158  TIP3      4721            0.0000000000
     36484      4914  TIP3      OH2            -1.6712842076      -11.2186151605      -29.1703136305  TIP3      4722            0.0000000000
     36485      4914  TIP3      H1             -2.5460752143      -11.0377445327      -28.7622482845  TIP3      4722            0.0000000000
     36486      4914  TIP3      H2             -1.3148154357      -10.3122449713      -29.2706125611  TIP3      4722            0.0000000000
     36487      4915  TIP3      OH2           -17.4556259789      -13.1371291341      -25.7381323437  TIP3      4723            0.0000000000
     36488      4915  TIP3      H1            -16.4897868465      -13.2114228560      -25.5587487185  TIP3      4723            0.0000000000
     36489      4915  TIP3      H2            -17.7890886328      -13.7034958271      -25.0194428789  TIP3      4723            0.0000000000
     36490      4916  TIP3      OH2             1.0527477985      -16.7653437574      -24.0077665269  TIP3      4724            0.0000000000
     36491      4916  TIP3      H1              1.3521693874      -17.5143240016      -24.5635966378  TIP3      4724            0.0000000000
     36492      4916  TIP3      H2              0.5855636218      -16.1967452336      -24.6559865656  TIP3      4724            0.0000000000
     36493      4917  TIP3      OH2            -1.9898598986      -14.9581863044      -36.9725002717  TIP3      4725            0.0000000000
     36494      4917  TIP3      H1             -1.5080070522      -15.4277100925      -36.2540026905  TIP3      4725            0.0000000000
     36495      4917  TIP3      H2             -2.2792292752      -15.6612376026      -37.5781704520  TIP3      4725            0.0000000000
     36496      4918  TIP3      OH2           -16.1699920509      -14.4000417869      -32.3485307392  TIP3      4726            0.0000000000
     36497      4918  TIP3      H1            -15.7723459927      -15.3019275561      -32.3969629879  TIP3      4726            0.0000000000
     36498      4918  TIP3      H2            -15.3925680901      -13.8152423366      -32.3350771701  TIP3      4726            0.0000000000
     36499      4919  TIP3      OH2           -17.6769364978      -11.4143832074      -31.4856213991  TIP3      4727            0.0000000000
     36500      4919  TIP3      H1            -17.2037388161      -11.7795953477      -32.2509849067  TIP3      4727            0.0000000000
     36501      4919  TIP3      H2            -17.2807033453      -10.5352917299      -31.4554775480  TIP3      4727            0.0000000000
     36502      4920  TIP3      OH2            -0.6243849915      -15.3732278023      -25.5809039915  TIP3      4728            0.0000000000
     36503      4920  TIP3      H1             -1.4120912357      -14.9245667776      -25.9792561805  TIP3      4728            0.0000000000
     36504      4920  TIP3      H2             -0.3511100818      -15.8677016722      -26.3782114930  TIP3      4728            0.0000000000
     36505      4921  TIP3      OH2             0.1454669389      -15.0563800883      -40.8856016770  TIP3      4729            0.0000000000
     36506      4921  TIP3      H1              0.5403538187      -15.6754892983      -41.5178893230  TIP3      4729            0.0000000000
     36507      4921  TIP3      H2              0.9222740808      -14.4911739477      -40.6870832971  TIP3      4729            0.0000000000
     36508      4922  TIP3      OH2           -17.6136100859      -15.3675475079      -37.9605483899  TIP3      4730            0.0000000000
     36509      4922  TIP3      H1            -18.4672050114      -15.0692464818      -37.6206333292  TIP3      4730            0.0000000000
     36510      4922  TIP3      H2            -17.4917477289      -14.7770861075      -38.7347868812  TIP3      4730            0.0000000000
     36511      4923  TIP3      OH2            -2.9135166238        0.0075422431      -35.6748854311  TIP3      4731            0.0000000000
     36512      4923  TIP3      H1             -2.1110134130       -0.4156865235      -36.0341905830  TIP3      4731            0.0000000000
     36513      4923  TIP3      H2             -2.6151535538        0.3718060184      -34.8146134045  TIP3      4731            0.0000000000
     36514      4924  TIP3      OH2           -17.4915541393      -16.5393365116      -29.4094715088  TIP3      4732            0.0000000000
     36515      4924  TIP3      H1            -18.1454443534      -16.8585179270      -28.7653377238  TIP3      4732            0.0000000000
     36516      4924  TIP3      H2            -17.9455586985      -15.7977358146      -29.8410311963  TIP3      4732            0.0000000000
     36517      4925  TIP3      OH2           -15.1066854563       -3.3996411985      -25.1681980652  TIP3      4733            0.0000000000
     36518      4925  TIP3      H1            -15.9723641986       -3.1751880534      -25.5414316307  TIP3      4733            0.0000000000
     36519      4925  TIP3      H2            -15.2871653717       -4.1726234409      -24.6073635975  TIP3      4733            0.0000000000
     36520      4926  TIP3      OH2           -12.3825112696       -1.8878752560      -28.8312605108  TIP3      4734            0.0000000000
     36521      4926  TIP3      H1            -12.4169265134       -0.9460086609      -29.0945729791  TIP3      4734            0.0000000000
     36522      4926  TIP3      H2            -11.4148143915       -2.0304765023      -28.8797356838  TIP3      4734            0.0000000000
     36523      4927  TIP3      OH2            -8.1864441602       -1.0081074397      -26.1257174900  TIP3      4735            0.0000000000
     36524      4927  TIP3      H1             -7.9984624112       -1.2196922333      -25.1844956355  TIP3      4735            0.0000000000
     36525      4927  TIP3      H2             -7.3974591499       -0.4601160104      -26.3482821277  TIP3      4735            0.0000000000
     36526      4928  TIP3      OH2            -6.0995586329        0.4098864646      -26.6874309567  TIP3      4736            0.0000000000
     36527      4928  TIP3      H1             -5.3075274048        0.1556738136      -27.2078515812  TIP3      4736            0.0000000000
     36528      4928  TIP3      H2             -5.7838862175        1.1114469657      -26.0979082140  TIP3      4736            0.0000000000
     36529      4929  TIP3      OH2            -0.9143111287      -17.2739658878      -27.6574370156  TIP3      4737            0.0000000000
     36530      4929  TIP3      H1             -1.7581999214      -17.0342067849      -28.0687793497  TIP3      4737            0.0000000000
     36531      4929  TIP3      H2             -0.8143699437      -18.2037152433      -27.9641299429  TIP3      4737            0.0000000000
     36532      4930  TIP3      OH2           -15.0363159113        1.1549570852      -28.9249375253  TIP3      4738            0.0000000000
     36533      4930  TIP3      H1            -15.8438170202        1.4819183369      -29.3582199462  TIP3      4738            0.0000000000
     36534      4930  TIP3      H2            -15.1619062878        1.4375315867      -28.0079576267  TIP3      4738            0.0000000000
     36535      4931  TIP3      OH2           -12.5567382568        0.5725484418      -29.9211328768  TIP3      4739            0.0000000000
     36536      4931  TIP3      H1            -13.4723446312        0.7277143891      -29.5867443569  TIP3      4739            0.0000000000
     36537      4931  TIP3      H2            -12.5236263427        1.1691400119      -30.6937539446  TIP3      4739            0.0000000000
     36538      4932  TIP3      OH2            -8.1185714882        0.1067007366      -30.6097555049  TIP3      4740            0.0000000000
     36539      4932  TIP3      H1             -8.3187333742        0.5964970925      -31.4127488285  TIP3      4740            0.0000000000
     36540      4932  TIP3      H2             -7.8983160347        0.8351448024      -29.9847536955  TIP3      4740            0.0000000000
     36541      4933  TIP3      OH2            -6.0082403622       -1.0758698190      -29.4857036102  TIP3      4741            0.0000000000
     36542      4933  TIP3      H1             -6.6809305197       -0.6642332298      -30.0686653813  TIP3      4741            0.0000000000
     36543      4933  TIP3      H2             -5.2879362527       -0.4169563699      -29.5374747401  TIP3      4741            0.0000000000
     36544      4934  TIP3      OH2            -3.9161109303        1.1888525076      -29.9052614706  TIP3      4742            0.0000000000
     36545      4934  TIP3      H1             -3.6659347423        2.0380777167      -30.3270809383  TIP3      4742            0.0000000000
     36546      4934  TIP3      H2             -3.5599326437        0.5601029744      -30.5852067306  TIP3      4742            0.0000000000
     36547      4935  TIP3      OH2           -15.4566790285       -0.5220331141      -32.1563383193  TIP3      4743            0.0000000000
     36548      4935  TIP3      H1            -15.6386737807       -1.0659226615      -31.3584750936  TIP3      4743            0.0000000000
     36549      4935  TIP3      H2            -14.5363040538       -0.8101923804      -32.3593616648  TIP3      4743            0.0000000000
     36550      4936  TIP3      OH2           -13.2348308010       -1.4937315866      -33.3890664437  TIP3      4744            0.0000000000
     36551      4936  TIP3      H1            -13.3407018567       -2.4360153689      -33.1652721074  TIP3      4744            0.0000000000
     36552      4936  TIP3      H2            -12.3591504667       -1.3436403718      -32.9612321168  TIP3      4744            0.0000000000
     36553      4937  TIP3      OH2           -11.0021399522       -1.4923687405      -32.0414263458  TIP3      4745            0.0000000000
     36554      4937  TIP3      H1            -10.5985814684       -2.3701173675      -32.1607582428  TIP3      4745            0.0000000000
     36555      4937  TIP3      H2            -10.7723437645       -1.2954737724      -31.1177237919  TIP3      4745            0.0000000000
     36556      4938  TIP3      OH2            -7.9487777097      -15.8768081386      -33.1334165692  TIP3      4746            0.0000000000
     36557      4938  TIP3      H1             -8.8039854056      -16.3191402377      -32.8993076462  TIP3      4746            0.0000000000
     36558      4938  TIP3      H2             -7.5450400961      -16.5375178574      -33.7101190232  TIP3      4746            0.0000000000
     36559      4939  TIP3      OH2            -2.0896733571      -17.4857017432      -33.3016320505  TIP3      4747            0.0000000000
     36560      4939  TIP3      H1             -1.4890018778      -16.9214794220      -33.8496469592  TIP3      4747            0.0000000000
     36561      4939  TIP3      H2             -2.9740468893      -17.2176966186      -33.6207904932  TIP3      4747            0.0000000000
     36562      4940  TIP3      OH2            -0.5566095943      -16.3780670512      -35.1550438423  TIP3      4748            0.0000000000
     36563      4940  TIP3      H1             -0.0529925880      -17.0338566891      -35.6858833862  TIP3      4748            0.0000000000
     36564      4940  TIP3      H2              0.1026704662      -15.6496643455      -35.0197558090  TIP3      4748            0.0000000000
     36565      4941  TIP3      OH2           -15.0410846859      -17.2510138268      -35.4900674977  TIP3      4749            0.0000000000
     36566      4941  TIP3      H1            -15.8937021897      -17.4127853053      -35.9358074067  TIP3      4749            0.0000000000
     36567      4941  TIP3      H2            -14.5951089016      -18.1194113036      -35.6297498575  TIP3      4749            0.0000000000
     36568      4942  TIP3      OH2           -16.4981499060      -17.1817619852      -39.8802823111  TIP3      4750            0.0000000000
     36569      4942  TIP3      H1            -15.9320706733      -16.5878002219      -40.4224743338  TIP3      4750            0.0000000000
     36570      4942  TIP3      H2            -16.8423473127      -16.5923117991      -39.1744951198  TIP3      4750            0.0000000000
     36571      4943  TIP3      OH2           -10.6964866581      -17.4000118058      -35.6665711253  TIP3      4751            0.0000000000
     36572      4943  TIP3      H1             -9.9199201903      -17.2739425919      -36.2310809815  TIP3      4751            0.0000000000
     36573      4943  TIP3      H2            -10.4373279488      -16.9736341548      -34.8345276277  TIP3      4751            0.0000000000
     36574      4944  TIP3      OH2            -4.7156415999      -16.9511141644      -34.1868404722  TIP3      4752            0.0000000000
     36575      4944  TIP3      H1             -4.9071183448      -16.7984367996      -35.1141709464  TIP3      4752            0.0000000000
     36576      4944  TIP3      H2             -5.2997411753      -17.7234290226      -33.9890071121  TIP3      4752            0.0000000000
     36577      4945  TIP3      OH2            -3.4604158462      -17.0626842101      -38.6605314567  TIP3      4753            0.0000000000
     36578      4945  TIP3      H1             -4.0850809367      -16.9856775722      -39.3992666450  TIP3      4753            0.0000000000
     36579      4945  TIP3      H2             -3.8736724663      -17.7846564466      -38.1312854206  TIP3      4753            0.0000000000
     36580      4946  TIP3      OH2           -16.4182411125       -1.0933214795      -38.9709678769  TIP3      4754            0.0000000000
     36581      4946  TIP3      H1            -17.3121079386       -1.0607036105      -39.3732406394  TIP3      4754            0.0000000000
     36582      4946  TIP3      H2            -16.2250532591       -0.1414013299      -39.0875684591  TIP3      4754            0.0000000000
     36583      4947  TIP3      OH2           -14.6548328319      -15.8479451131      -41.3067628012  TIP3      4755            0.0000000000
     36584      4947  TIP3      H1            -13.7932504347      -16.3022980477      -41.2876247830  TIP3      4755            0.0000000000
     36585      4947  TIP3      H2            -14.4392000234      -14.9876106810      -40.9288001498  TIP3      4755            0.0000000000
     36586      4948  TIP3      OH2            -9.3765452416      -14.6562289585      -38.8480446458  TIP3      4756            0.0000000000
     36587      4948  TIP3      H1             -8.8868303382      -15.2897279580      -38.3012980693  TIP3      4756            0.0000000000
     36588      4948  TIP3      H2             -9.1766061537      -13.8390208800      -38.3476986771  TIP3      4756            0.0000000000
     36589      4949  TIP3      OH2            -7.4101724970        0.9660605025      -40.6025698455  TIP3      4757            0.0000000000
     36590      4949  TIP3      H1             -6.5594916245        1.1208710403      -41.0615907041  TIP3      4757            0.0000000000
     36591      4949  TIP3      H2             -7.4770985794        0.0137335096      -40.8147446695  TIP3      4757            0.0000000000
     36592      4950  TIP3      OH2            -0.8567192238       -0.7903036603      -37.3321083961  TIP3      4758            0.0000000000
     36593      4950  TIP3      H1             -1.0828601022       -1.5668447571      -37.8940324134  TIP3      4758            0.0000000000
     36594      4950  TIP3      H2             -0.9932378838       -0.0938578554      -38.0021500561  TIP3      4758            0.0000000000
     36595      4951  TIP3      OH2           -15.5758899608      -16.3327825085      -26.3492050523  TIP3      4759            0.0000000000
     36596      4951  TIP3      H1            -16.1830606589      -17.0395524913      -26.0700340736  TIP3      4759            0.0000000000
     36597      4951  TIP3      H2            -14.8569832153      -16.4122431294      -25.6989545990  TIP3      4759            0.0000000000
     36598      4952  TIP3      OH2           -13.5651417420      -17.0226116479      -24.1849143197  TIP3      4760            0.0000000000
     36599      4952  TIP3      H1            -12.5976579253      -17.0739683646      -24.2352571310  TIP3      4760            0.0000000000
     36600      4952  TIP3      H2            -13.7403688697      -17.8842641048      -23.7751007473  TIP3      4760            0.0000000000
     36601      4953  TIP3      OH2           -14.4798156436        0.0586279294      -41.6339385640  TIP3      4761            0.0000000000
     36602      4953  TIP3      H1            -15.2465314838        0.2231726943      -41.0642233744  TIP3      4761            0.0000000000
     36603      4953  TIP3      H2            -14.1756392064       -0.8219563032      -41.3998188131  TIP3      4761            0.0000000000
     36604      4954  TIP3      OH2            -5.0021427277      -17.6359660036      -24.0975298916  TIP3      4762            0.0000000000
     36605      4954  TIP3      H1             -5.1082761438      -18.1274158391      -23.2524148269  TIP3      4762            0.0000000000
     36606      4954  TIP3      H2             -4.1196372000      -17.9409930435      -24.3723868881  TIP3      4762            0.0000000000
     36607      4955  TIP3      OH2            -2.3887635394       -1.3122546759      -24.8827354466  TIP3      4763            0.0000000000
     36608      4955  TIP3      H1             -2.1236021834       -2.0831656865      -25.4341703127  TIP3      4763            0.0000000000
     36609      4955  TIP3      H2             -2.7077074334       -0.7383210531      -25.5932134294  TIP3      4763            0.0000000000
     36610      4956  TIP3      OH2            13.0926679381       -7.6810342128      -35.8149227609  TIP3      4764            0.0000000000
     36611      4956  TIP3      H1             12.8540266901       -6.7220256141      -35.8276662350  TIP3      4764            0.0000000000
     36612      4956  TIP3      H2             12.2775393340       -8.0832054482      -36.1565717594  TIP3      4764            0.0000000000
     36613      4957  TIP3      OH2            11.7972769027       -8.9335277964      -32.4282823948  TIP3      4765            0.0000000000
     36614      4957  TIP3      H1             11.7587012934       -9.2673008050      -31.5101314631  TIP3      4765            0.0000000000
     36615      4957  TIP3      H2             11.0305695182       -9.3609463656      -32.8518713208  TIP3      4765            0.0000000000
     36616      4958  TIP3      OH2             3.6807900606       -9.1556443209      -30.7286813424  TIP3      4766            0.0000000000
     36617      4958  TIP3      H1              3.9294432536       -9.8837738433      -30.1280281456  TIP3      4766            0.0000000000
     36618      4958  TIP3      H2              4.3242770685       -8.4777754931      -30.4864058232  TIP3      4766            0.0000000000
     36619      4959  TIP3      OH2            14.9714557250       -6.0690518515      -33.8940514261  TIP3      4767            0.0000000000
     36620      4959  TIP3      H1             14.8284855609       -6.6629184114      -33.1430436661  TIP3      4767            0.0000000000
     36621      4959  TIP3      H2             15.4919626958       -5.3626309301      -33.4940704974  TIP3      4767            0.0000000000
     36622      4960  TIP3      OH2             5.0724252202       -3.9801087964      -32.8898766979  TIP3      4768            0.0000000000
     36623      4960  TIP3      H1              4.5593642977       -4.8049645125      -32.9052850622  TIP3      4768            0.0000000000
     36624      4960  TIP3      H2              5.9683452652       -4.3489364327      -32.7791036413  TIP3      4768            0.0000000000
     36625      4961  TIP3      OH2             1.4991522896      -11.2045166290      -36.7647331890  TIP3      4769            0.0000000000
     36626      4961  TIP3      H1              1.2218101764      -10.2913793453      -36.5684034897  TIP3      4769            0.0000000000
     36627      4961  TIP3      H2              0.9998692052      -11.3751299620      -37.5859389943  TIP3      4769            0.0000000000
     36628      4962  TIP3      OH2             2.3088060878       -8.7079576826      -34.3812371692  TIP3      4770            0.0000000000
     36629      4962  TIP3      H1              2.6536107339       -9.6208044967      -34.2306110809  TIP3      4770            0.0000000000
     36630      4962  TIP3      H2              3.1014582469       -8.1559065787      -34.4682665875  TIP3      4770            0.0000000000
     36631      4963  TIP3      OH2            12.6794720600       -0.4691335171      -33.9723887371  TIP3      4771            0.0000000000
     36632      4963  TIP3      H1             13.4878697457       -0.9379674945      -34.3072925874  TIP3      4771            0.0000000000
     36633      4963  TIP3      H2             12.2586929402       -1.1906345177      -33.4781396051  TIP3      4771            0.0000000000
     36634      4964  TIP3      OH2             9.6186783838       -6.2215542757      -31.1428250120  TIP3      4772            0.0000000000
     36635      4964  TIP3      H1              9.8861082386       -6.5424252214      -32.0121890577  TIP3      4772            0.0000000000
     36636      4964  TIP3      H2             10.4943794987       -5.9826804105      -30.7721573905  TIP3      4772            0.0000000000
     36637      4965  TIP3      OH2            18.6508640987      -14.6228708402      -31.2900422520  TIP3      4773            0.0000000000
     36638      4965  TIP3      H1             18.5946422698      -14.0112210818      -30.5244071787  TIP3      4773            0.0000000000
     36639      4965  TIP3      H2             19.5255900396      -14.3736558975      -31.6247690760  TIP3      4773            0.0000000000
     36640      4966  TIP3      OH2            13.4826519064      -11.6273881822      -31.2351240353  TIP3      4774            0.0000000000
     36641      4966  TIP3      H1             13.8056009451      -12.5000532181      -30.9595122227  TIP3      4774            0.0000000000
     36642      4966  TIP3      H2             13.2794607031      -11.7763615560      -32.1736423525  TIP3      4774            0.0000000000
     36643      4967  TIP3      OH2             6.4111103913      -13.8200586070      -34.4971278159  TIP3      4775            0.0000000000
     36644      4967  TIP3      H1              6.5430980649      -13.0259808790      -35.0600064239  TIP3      4775            0.0000000000
     36645      4967  TIP3      H2              6.0291740025      -14.4358975588      -35.1460081583  TIP3      4775            0.0000000000
     36646      4968  TIP3      OH2            14.0224089552      -13.3580585873      -35.6827971209  TIP3      4776            0.0000000000
     36647      4968  TIP3      H1             14.5983532252      -13.7945031964      -35.0115327240  TIP3      4776            0.0000000000
     36648      4968  TIP3      H2             14.6631400686      -12.8065744712      -36.1613337811  TIP3      4776            0.0000000000
     36649      4969  TIP3      OH2             2.8875758773      -11.2006546887      -33.6263629866  TIP3      4777            0.0000000000
     36650      4969  TIP3      H1              3.4734616421      -11.5654133810      -32.9414583175  TIP3      4777            0.0000000000
     36651      4969  TIP3      H2              3.2224909954      -11.6563842410      -34.4324959821  TIP3      4777            0.0000000000
     36652      4970  TIP3      OH2             7.7572255110       -9.6879693175      -34.1092149876  TIP3      4778            0.0000000000
     36653      4970  TIP3      H1              8.6495685424      -10.0610063149      -33.9470528793  TIP3      4778            0.0000000000
     36654      4970  TIP3      H2              7.4283288490      -10.3439190708      -34.7602100776  TIP3      4778            0.0000000000
     36655      4971  TIP3      OH2            18.7947338119      -13.2345719658      -28.9443529316  TIP3      4779            0.0000000000
     36656      4971  TIP3      H1             18.4232516537      -12.4123281153      -29.3427400863  TIP3      4779            0.0000000000
     36657      4971  TIP3      H2             19.0169041281      -12.9245572353      -28.0488128798  TIP3      4779            0.0000000000
     36658      4972  TIP3      OH2             5.4219889491      -14.8501895941      -30.3622043548  TIP3      4780            0.0000000000
     36659      4972  TIP3      H1              4.9692791937      -14.2554962243      -31.0002157052  TIP3      4780            0.0000000000
     36660      4972  TIP3      H2              4.8683633143      -14.7014123658      -29.5707065895  TIP3      4780            0.0000000000
     36661      4973  TIP3      OH2            12.1131874125       -5.3966831365      -36.6916411681  TIP3      4781            0.0000000000
     36662      4973  TIP3      H1             11.9956267848       -5.3402720162      -37.6554431945  TIP3      4781            0.0000000000
     36663      4973  TIP3      H2             11.8582409656       -4.4939538860      -36.3871947066  TIP3      4781            0.0000000000
     36664      4974  TIP3      OH2             7.2547118144       -7.1055850417      -30.2970643364  TIP3      4782            0.0000000000
     36665      4974  TIP3      H1              6.6545222996       -6.4233070106      -29.9204377496  TIP3      4782            0.0000000000
     36666      4974  TIP3      H2              8.0109958534       -6.5556591123      -30.6045101307  TIP3      4782            0.0000000000
     36667      4975  TIP3      OH2            15.7820818010      -14.1839076329      -33.8160934191  TIP3      4783            0.0000000000
     36668      4975  TIP3      H1             15.3589029331      -14.4495629632      -32.9788073852  TIP3      4783            0.0000000000
     36669      4975  TIP3      H2             16.6189698788      -13.8082172979      -33.5086434841  TIP3      4783            0.0000000000
     36670      4976  TIP3      OH2             4.9483496903      -12.7325944261      -32.2151041097  TIP3      4784            0.0000000000
     36671      4976  TIP3      H1              5.5977837978      -12.1101080848      -31.8165138079  TIP3      4784            0.0000000000
     36672      4976  TIP3      H2              5.3897299543      -12.9848000961      -33.0584841728  TIP3      4784            0.0000000000
     36673      4977  TIP3      OH2             6.1655879628       -4.7231516720      -29.2811026653  TIP3      4785            0.0000000000
     36674      4977  TIP3      H1              6.0701077317       -3.8703680339      -29.7298212627  TIP3      4785            0.0000000000
     36675      4977  TIP3      H2              5.2892893429       -4.7585680501      -28.8218490160  TIP3      4785            0.0000000000
     36676      4978  TIP3      OH2             2.1716674094       -5.7813894568      -38.5544987045  TIP3      4786            0.0000000000
     36677      4978  TIP3      H1              1.9900292321       -5.3317305774      -39.4100743090  TIP3      4786            0.0000000000
     36678      4978  TIP3      H2              2.4449713789       -4.9973271763      -38.0115316128  TIP3      4786            0.0000000000
     36679      4979  TIP3      OH2            15.8807303719       -3.9195293865      -31.6159065106  TIP3      4787            0.0000000000
     36680      4979  TIP3      H1             15.0017331897       -3.5020410116      -31.4943328042  TIP3      4787            0.0000000000
     36681      4979  TIP3      H2             16.2197335785       -3.3409584366      -32.3173290516  TIP3      4787            0.0000000000
     36682      4980  TIP3      OH2            16.0272682028      -15.6257099840      -30.5035087989  TIP3      4788            0.0000000000
     36683      4980  TIP3      H1             15.2143359397      -15.5483030162      -31.0422798232  TIP3      4788            0.0000000000
     36684      4980  TIP3      H2             16.7208176434      -15.2572316934      -31.0879009804  TIP3      4788            0.0000000000
     36685      4981  TIP3      OH2             8.9073655044      -17.2021416105      -32.8565413629  TIP3      4789            0.0000000000
     36686      4981  TIP3      H1              8.5453315594      -18.0839419073      -33.0112185779  TIP3      4789            0.0000000000
     36687      4981  TIP3      H2              8.0539431424      -16.7545409891      -32.5867288343  TIP3      4789            0.0000000000
     36688      4982  TIP3      OH2            14.4310359851       -2.0461808837      -35.1642426193  TIP3      4790            0.0000000000
     36689      4982  TIP3      H1             14.6335168439       -2.8134442099      -35.7552334715  TIP3      4790            0.0000000000
     36690      4982  TIP3      H2             15.2252887801       -1.4792532084      -35.2957583505  TIP3      4790            0.0000000000
     36691      4983  TIP3      OH2            14.9561864820       -4.1811921655      -36.7270088469  TIP3      4791            0.0000000000
     36692      4983  TIP3      H1             14.9584253737       -4.8719537472      -37.4042606814  TIP3      4791            0.0000000000
     36693      4983  TIP3      H2             15.3089520862       -4.6496927866      -35.9569050967  TIP3      4791            0.0000000000
     36694      4984  TIP3      OH2            16.6955107049       -5.3550996889      -27.9615944129  TIP3      4792            0.0000000000
     36695      4984  TIP3      H1             16.7562531519       -6.0562608651      -28.6576613542  TIP3      4792            0.0000000000
     36696      4984  TIP3      H2             16.7649406994       -4.5642279429      -28.5276039983  TIP3      4792            0.0000000000
     36697      4985  TIP3      OH2            11.4510418195       -8.5891620062      -38.3907592017  TIP3      4793            0.0000000000
     36698      4985  TIP3      H1             10.8515096611       -7.8043335029      -38.3811287464  TIP3      4793            0.0000000000
     36699      4985  TIP3      H2             12.3171316522       -8.1647230495      -38.5756397338  TIP3      4793            0.0000000000
     36700      4986  TIP3      OH2            11.2653703043       -9.2977232510      -41.1315055415  TIP3      4794            0.0000000000
     36701      4986  TIP3      H1             11.6769815226       -9.0651719712      -40.2668218576  TIP3      4794            0.0000000000
     36702      4986  TIP3      H2             11.8201315673      -10.0440363246      -41.4053869583  TIP3      4794            0.0000000000
     36703      4987  TIP3      OH2            18.8324620436       -8.9924346621      -29.9685036489  TIP3      4795            0.0000000000
     36704      4987  TIP3      H1             18.3941366125       -8.1277198488      -29.9082038934  TIP3      4795            0.0000000000
     36705      4987  TIP3      H2             19.5478336134       -8.7636554991      -30.5940298920  TIP3      4795            0.0000000000
     36706      4988  TIP3      OH2            15.3975281760       -8.2351541752      -37.1213163371  TIP3      4796            0.0000000000
     36707      4988  TIP3      H1             14.6031938108       -7.9977449602      -36.5785703443  TIP3      4796            0.0000000000
     36708      4988  TIP3      H2             15.8921949487       -8.7950890623      -36.4808755835  TIP3      4796            0.0000000000
     36709      4989  TIP3      OH2            14.9407643175      -10.2325691681      -27.9507985935  TIP3      4797            0.0000000000
     36710      4989  TIP3      H1             14.9208402371       -9.3712389230      -27.4917427812  TIP3      4797            0.0000000000
     36711      4989  TIP3      H2             14.3325435779      -10.0481792666      -28.6861667251  TIP3      4797            0.0000000000
     36712      4990  TIP3      OH2             6.3385140887       -7.8991858029      -35.4839972498  TIP3      4798            0.0000000000
     36713      4990  TIP3      H1              6.3204362552       -8.2436136499      -36.3989751275  TIP3      4798            0.0000000000
     36714      4990  TIP3      H2              6.9672640787       -8.5048235925      -35.0385288683  TIP3      4798            0.0000000000
     36715      4991  TIP3      OH2             7.8529672385       -4.4640098007      -32.6200097715  TIP3      4799            0.0000000000
     36716      4991  TIP3      H1              7.9513684250       -4.6662527848      -33.5655551825  TIP3      4799            0.0000000000
     36717      4991  TIP3      H2              8.5070173435       -5.0298401232      -32.1675441207  TIP3      4799            0.0000000000
     36718      4992  TIP3      OH2             6.5233638601       -9.1772927764      -31.7348071706  TIP3      4800            0.0000000000
     36719      4992  TIP3      H1              7.0096981322       -9.1138280793      -32.5869802749  TIP3      4800            0.0000000000
     36720      4992  TIP3      H2              6.8822654932       -8.4140010985      -31.2314226396  TIP3      4800            0.0000000000
     36721      4993  TIP3      OH2            13.3479294261       -3.2296843846      -31.0861325370  TIP3      4801            0.0000000000
     36722      4993  TIP3      H1             12.7394845732       -2.8182166170      -30.4562537034  TIP3      4801            0.0000000000
     36723      4993  TIP3      H2             13.2779814036       -4.1697752633      -30.8199653578  TIP3      4801            0.0000000000
     36724      4994  TIP3      OH2             8.0279259473       -4.5040714824      -27.2093283550  TIP3      4802            0.0000000000
     36725      4994  TIP3      H1              7.3202183647       -4.0757648126      -26.6562948282  TIP3      4802            0.0000000000
     36726      4994  TIP3      H2              7.5033702479       -4.6286460943      -28.0270442878  TIP3      4802            0.0000000000
     36727      4995  TIP3      OH2            13.9602642385       -8.7294923144      -39.3395197731  TIP3      4803            0.0000000000
     36728      4995  TIP3      H1             14.6131683430       -8.4695750402      -38.6537452547  TIP3      4803            0.0000000000
     36729      4995  TIP3      H2             14.3562108488       -8.3382757574      -40.1478526144  TIP3      4803            0.0000000000
     36730      4996  TIP3      OH2             4.6063963780       -8.4693000497      -27.7886231838  TIP3      4804            0.0000000000
     36731      4996  TIP3      H1              4.6945824704       -7.8660563066      -27.0390954200  TIP3      4804            0.0000000000
     36732      4996  TIP3      H2              3.7050985716       -8.8104478665      -27.6014541506  TIP3      4804            0.0000000000
     36733      4997  TIP3      OH2            11.6971968258       -2.9640672298      -35.7032096893  TIP3      4805            0.0000000000
     36734      4997  TIP3      H1             12.2887791274       -2.3327750521      -35.2715206622  TIP3      4805            0.0000000000
     36735      4997  TIP3      H2             11.1281342310       -2.3873466344      -36.2222527054  TIP3      4805            0.0000000000
     36736      4998  TIP3      OH2             6.2197884459       -2.9535838995      -26.0658847875  TIP3      4806            0.0000000000
     36737      4998  TIP3      H1              6.3928615535       -2.2506645856      -26.7300530713  TIP3      4806            0.0000000000
     36738      4998  TIP3      H2              5.3451356143       -2.6709418231      -25.7366474103  TIP3      4806            0.0000000000
     36739      4999  TIP3      OH2            17.8024340913      -17.5597345773      -39.0863623912  TIP3      4807            0.0000000000
     36740      4999  TIP3      H1             16.8160710019      -17.4997735102      -39.1206287648  TIP3      4807            0.0000000000
     36741      4999  TIP3      H2             18.0618145483      -16.7837917010      -39.6064723075  TIP3      4807            0.0000000000
     36742      5000  TIP3      OH2             5.4536224714       -8.8221896680      -38.1098641381  TIP3      4808            0.0000000000
     36743      5000  TIP3      H1              4.9971434499       -8.0230134550      -38.4497679715  TIP3      4808            0.0000000000
     36744      5000  TIP3      H2              4.7619215403       -9.4955887808      -38.0947528745  TIP3      4808            0.0000000000
     36745      5001  TIP3      OH2            18.4838679325       -3.4668972231      -41.4607966172  TIP3      4809            0.0000000000
     36746      5001  TIP3      H1             18.7192056836       -2.5265844836      -41.5332500473  TIP3      4809            0.0000000000
     36747      5001  TIP3      H2             19.3489395984       -3.8375219297      -41.1766717761  TIP3      4809            0.0000000000
     36748      5002  TIP3      OH2             1.6039264627       -6.2119079068      -28.8036389971  TIP3      4810            0.0000000000
     36749      5002  TIP3      H1              1.0890513417       -6.2156425451      -29.6401365047  TIP3      4810            0.0000000000
     36750      5002  TIP3      H2              1.9941948179       -7.1162655240      -28.8074016283  TIP3      4810            0.0000000000
     36751      5003  TIP3      OH2             2.0133780159       -3.5118220746      -31.6250659454  TIP3      4811            0.0000000000
     36752      5003  TIP3      H1              2.5348837699       -2.9749113488      -32.2314053740  TIP3      4811            0.0000000000
     36753      5003  TIP3      H2              1.1213586131       -3.3144720667      -31.9901608335  TIP3      4811            0.0000000000
     36754      5004  TIP3      OH2            19.6124297504       -2.8484573251      -26.4364261517  TIP3      4812            0.0000000000
     36755      5004  TIP3      H1             19.4850533066       -3.8020270251      -26.5613532448  TIP3      4812            0.0000000000
     36756      5004  TIP3      H2             18.7049966772       -2.5934340091      -26.1382326568  TIP3      4812            0.0000000000
     36757      5005  TIP3      OH2            10.5867852422       -3.4802738453      -27.3693653426  TIP3      4813            0.0000000000
     36758      5005  TIP3      H1             10.5228751336       -2.8350430890      -26.6481048063  TIP3      4813            0.0000000000
     36759      5005  TIP3      H2              9.6995522677       -3.9068211072      -27.3549217870  TIP3      4813            0.0000000000
     36760      5006  TIP3      OH2            10.8879499980        0.3584495927      -37.9595511821  TIP3      4814            0.0000000000
     36761      5006  TIP3      H1             10.9490141159        0.5876524840      -38.9105871438  TIP3      4814            0.0000000000
     36762      5006  TIP3      H2             10.9965364844        1.2442231532      -37.5409101140  TIP3      4814            0.0000000000
     36763      5007  TIP3      OH2             4.4898549465       -1.0492024768      -35.7325391299  TIP3      4815            0.0000000000
     36764      5007  TIP3      H1              4.8277561538       -1.2938539554      -34.8385297372  TIP3      4815            0.0000000000
     36765      5007  TIP3      H2              3.5301474340       -1.1233700878      -35.5771124641  TIP3      4815            0.0000000000
     36766      5008  TIP3      OH2            14.0867331086       -0.0963100078      -40.8586317804  TIP3      4816            0.0000000000
     36767      5008  TIP3      H1             14.5872756463       -0.8759096300      -41.1572166607  TIP3      4816            0.0000000000
     36768      5008  TIP3      H2             14.0549904379       -0.2472981832      -39.8914296294  TIP3      4816            0.0000000000
     36769      5009  TIP3      OH2            13.8497224151       -0.3468564026      -38.1561000115  TIP3      4817            0.0000000000
     36770      5009  TIP3      H1             12.8883977989       -0.2029878205      -38.0726801819  TIP3      4817            0.0000000000
     36771      5009  TIP3      H2             14.0093864854       -1.0723497866      -37.5300610605  TIP3      4817            0.0000000000
     36772      5010  TIP3      OH2            16.3897744164      -11.4093058536      -26.0375273415  TIP3      4818            0.0000000000
     36773      5010  TIP3      H1             15.8010197483      -10.9111239975      -26.6468291352  TIP3      4818            0.0000000000
     36774      5010  TIP3      H2             16.2827920149      -12.3371715672      -26.3292780316  TIP3      4818            0.0000000000
     36775      5011  TIP3      OH2             3.6941229293       -4.6671111576      -28.0497924157  TIP3      4819            0.0000000000
     36776      5011  TIP3      H1              3.8248504517       -5.0624809983      -27.1611203386  TIP3      4819            0.0000000000
     36777      5011  TIP3      H2              2.8973988137       -5.1582303874      -28.3354257684  TIP3      4819            0.0000000000
     36778      5012  TIP3      OH2             6.5742674809      -16.3014003332      -32.1896324820  TIP3      4820            0.0000000000
     36779      5012  TIP3      H1              5.6876093424      -16.4168597975      -32.5667685235  TIP3      4820            0.0000000000
     36780      5012  TIP3      H2              6.3419016093      -15.8727627603      -31.3363920287  TIP3      4820            0.0000000000
     36781      5013  TIP3      OH2            11.5141956534      -16.7551184680      -28.8338005131  TIP3      4821            0.0000000000
     36782      5013  TIP3      H1             11.9360026636      -17.2394755432      -28.0924831385  TIP3      4821            0.0000000000
     36783      5013  TIP3      H2             10.5765568835      -16.7716563448      -28.5652685617  TIP3      4821            0.0000000000
     36784      5014  TIP3      OH2            14.4032301963      -13.0041767338      -27.5900634715  TIP3      4822            0.0000000000
     36785      5014  TIP3      H1             13.8583819665      -13.1912650284      -26.7886765680  TIP3      4822            0.0000000000
     36786      5014  TIP3      H2             14.4268760591      -12.0289040368      -27.6315027010  TIP3      4822            0.0000000000
     36787      5015  TIP3      OH2            15.1456770130       -7.8568545215      -41.5397123598  TIP3      4823            0.0000000000
     36788      5015  TIP3      H1             15.1785954995       -7.6453441072      -42.4840723971  TIP3      4823            0.0000000000
     36789      5015  TIP3      H2             15.9631287433       -7.4235596685      -41.2453157339  TIP3      4823            0.0000000000
     36790      5016  TIP3      OH2            11.0121151620      -13.6711888968      -41.3874274311  TIP3      4824            0.0000000000
     36791      5016  TIP3      H1             10.5323085830      -13.6097874601      -40.5444874223  TIP3      4824            0.0000000000
     36792      5016  TIP3      H2             10.8071091618      -14.5751726022      -41.6597016205  TIP3      4824            0.0000000000
     36793      5017  TIP3      OH2             6.7697434162      -11.5477417814      -30.6184563633  TIP3      4825            0.0000000000
     36794      5017  TIP3      H1              5.9889728760      -11.4394317815      -30.0395137367  TIP3      4825            0.0000000000
     36795      5017  TIP3      H2              6.7398265262      -10.6754594123      -31.0743632605  TIP3      4825            0.0000000000
     36796      5018  TIP3      OH2             6.5980061019      -11.6066886773      -35.9353179827  TIP3      4826            0.0000000000
     36797      5018  TIP3      H1              5.6299598592      -11.5417588132      -36.0034780772  TIP3      4826            0.0000000000
     36798      5018  TIP3      H2              6.8458574427      -11.8084143106      -36.8687817047  TIP3      4826            0.0000000000
     36799      5019  TIP3      OH2            12.2436821119      -10.7837264289      -37.1490776316  TIP3      4827            0.0000000000
     36800      5019  TIP3      H1             11.9147513953       -9.9843386939      -37.6220898486  TIP3      4827            0.0000000000
     36801      5019  TIP3      H2             12.8407147987      -11.1510284205      -37.8214201802  TIP3      4827            0.0000000000
     36802      5020  TIP3      OH2            10.8298528632      -10.5895411754      -25.7234163166  TIP3      4828            0.0000000000
     36803      5020  TIP3      H1             10.4087067990      -11.4232697848      -25.4418827834  TIP3      4828            0.0000000000
     36804      5020  TIP3      H2             10.9533820993      -10.1427940276      -24.8697685458  TIP3      4828            0.0000000000
     36805      5021  TIP3      OH2            13.0350920779      -11.2856145252      -34.0384091272  TIP3      4829            0.0000000000
     36806      5021  TIP3      H1             13.0471635084      -10.4430070980      -34.5316175308  TIP3      4829            0.0000000000
     36807      5021  TIP3      H2             13.0999215412      -11.9144575665      -34.7789735738  TIP3      4829            0.0000000000
     36808      5022  TIP3      OH2             4.3177304523      -11.4448473936      -29.4103649123  TIP3      4830            0.0000000000
     36809      5022  TIP3      H1              4.3833559403      -11.1206693770      -28.4965664916  TIP3      4830            0.0000000000
     36810      5022  TIP3      H2              4.0380386112      -12.3749669067      -29.2631637595  TIP3      4830            0.0000000000
     36811      5023  TIP3      OH2             7.5225731987      -13.5383676298      -41.6547714557  TIP3      4831            0.0000000000
     36812      5023  TIP3      H1              7.2429595856      -14.2435189466      -41.0350655979  TIP3      4831            0.0000000000
     36813      5023  TIP3      H2              7.1973241715      -12.7504293347      -41.1675566064  TIP3      4831            0.0000000000
     36814      5024  TIP3      OH2             1.0626406230      -14.1458401468      -34.8084855543  TIP3      4832            0.0000000000
     36815      5024  TIP3      H1              1.7081871698      -14.0482981050      -34.0886683054  TIP3      4832            0.0000000000
     36816      5024  TIP3      H2              1.4098543900      -13.5873724218      -35.5179634745  TIP3      4832            0.0000000000
     36817      5025  TIP3      OH2             2.1034201854      -13.5096377951      -39.7261080106  TIP3      4833            0.0000000000
     36818      5025  TIP3      H1              2.6281837962      -13.1234034607      -40.4571329890  TIP3      4833            0.0000000000
     36819      5025  TIP3      H2              1.5434222912      -12.7364942368      -39.5075814526  TIP3      4833            0.0000000000
     36820      5026  TIP3      OH2            12.1943749360       -9.4589374034      -29.7963199396  TIP3      4834            0.0000000000
     36821      5026  TIP3      H1             12.8300526169      -10.0440222155      -30.2504400969  TIP3      4834            0.0000000000
     36822      5026  TIP3      H2             11.6853544469      -10.1156827196      -29.2670865500  TIP3      4834            0.0000000000
     36823      5027  TIP3      OH2             9.5056648293      -14.0574106006      -34.8291053471  TIP3      4835            0.0000000000
     36824      5027  TIP3      H1              8.5642610351      -13.9564691361      -34.6129066108  TIP3      4835            0.0000000000
     36825      5027  TIP3      H2              9.9009651886      -14.3976507651      -33.9945723409  TIP3      4835            0.0000000000
     36826      5028  TIP3      OH2             3.8369816021      -12.3421788602      -35.8099818785  TIP3      4836            0.0000000000
     36827      5028  TIP3      H1              3.1237234501      -12.0108909971      -36.4023853819  TIP3      4836            0.0000000000
     36828      5028  TIP3      H2              4.0831813052      -13.1985553614      -36.2287861252  TIP3      4836            0.0000000000
     36829      5029  TIP3      OH2             7.1664559461      -12.0933426809      -38.4923769840  TIP3      4837            0.0000000000
     36830      5029  TIP3      H1              8.1033929451      -11.9084654297      -38.3001147308  TIP3      4837            0.0000000000
     36831      5029  TIP3      H2              7.0049342734      -11.5958266241      -39.3251892426  TIP3      4837            0.0000000000
     36832      5030  TIP3      OH2            13.8186273800      -14.7930255205      -31.7586738466  TIP3      4838            0.0000000000
     36833      5030  TIP3      H1             13.0587934523      -14.7592904878      -31.1390054785  TIP3      4838            0.0000000000
     36834      5030  TIP3      H2             13.4092296752      -15.1549640549      -32.5615809065  TIP3      4838            0.0000000000
     36835      5031  TIP3      OH2             6.6292581504      -11.1165766609      -40.9240477113  TIP3      4839            0.0000000000
     36836      5031  TIP3      H1              5.9884069081      -11.2520423585      -41.6411587377  TIP3      4839            0.0000000000
     36837      5031  TIP3      H2              7.3681940206      -10.6685493535      -41.3960782877  TIP3      4839            0.0000000000
     36838      5032  TIP3      OH2            16.6144477145        1.0754790275      -25.2270869850  TIP3      4840            0.0000000000
     36839      5032  TIP3      H1             17.0879809205        1.2834042018      -26.0542076776  TIP3      4840            0.0000000000
     36840      5032  TIP3      H2             17.2944616829        1.3742334956      -24.5920221547  TIP3      4840            0.0000000000
     36841      5033  TIP3      OH2             3.8609254789       -6.0324708320      -25.6055414199  TIP3      4841            0.0000000000
     36842      5033  TIP3      H1              4.6949013652       -6.1394902250      -25.1402160480  TIP3      4841            0.0000000000
     36843      5033  TIP3      H2              3.3360471668       -6.7685531533      -25.2421039837  TIP3      4841            0.0000000000
     36844      5034  TIP3      OH2            10.1841292369      -11.0227774132      -33.4176476761  TIP3      4842            0.0000000000
     36845      5034  TIP3      H1             11.0974571734      -11.3407768616      -33.5708136650  TIP3      4842            0.0000000000
     36846      5034  TIP3      H2              9.9111233143      -11.5992178625      -32.6932886984  TIP3      4842            0.0000000000
     36847      5035  TIP3      OH2             4.8741652261      -14.9398161520      -36.5034483780  TIP3      4843            0.0000000000
     36848      5035  TIP3      H1              4.4002471113      -15.6545491242      -36.0196537950  TIP3      4843            0.0000000000
     36849      5035  TIP3      H2              5.2083829980      -15.4301338875      -37.2748727797  TIP3      4843            0.0000000000
     36850      5036  TIP3      OH2             9.0396746303      -12.9167639188      -30.6294012169  TIP3      4844            0.0000000000
     36851      5036  TIP3      H1              8.2417028818      -12.3501825545      -30.7240031972  TIP3      4844            0.0000000000
     36852      5036  TIP3      H2              9.6292305771      -12.3376040643      -30.1313174370  TIP3      4844            0.0000000000
     36853      5037  TIP3      OH2             9.7258986117       -6.5713029350      -38.5222101497  TIP3      4845            0.0000000000
     36854      5037  TIP3      H1              9.0029733468       -7.0762617676      -38.9639827427  TIP3      4845            0.0000000000
     36855      5037  TIP3      H2              9.2415183192       -6.2736581761      -37.7111819969  TIP3      4845            0.0000000000
     36856      5038  TIP3      OH2            16.9261439872       -6.8660923867      -30.0528309050  TIP3      4846            0.0000000000
     36857      5038  TIP3      H1             17.4776473635       -6.3261262216      -30.6815642266  TIP3      4846            0.0000000000
     36858      5038  TIP3      H2             16.1498958144       -7.0649474555      -30.6057631295  TIP3      4846            0.0000000000
     36859      5039  TIP3      OH2            13.6638684847      -13.6113698024      -40.8097467535  TIP3      4847            0.0000000000
     36860      5039  TIP3      H1             12.8707622099      -13.3372061346      -41.3079549842  TIP3      4847            0.0000000000
     36861      5039  TIP3      H2             13.8238167457      -12.8242700949      -40.2516010674  TIP3      4847            0.0000000000
     36862      5040  TIP3      OH2            11.2273904164       -6.1427565411      -27.1502063352  TIP3      4848            0.0000000000
     36863      5040  TIP3      H1             10.5097279712       -6.4348059694      -26.5634229445  TIP3      4848            0.0000000000
     36864      5040  TIP3      H2             11.0817374387       -5.1803231698      -27.1878837862  TIP3      4848            0.0000000000
     36865      5041  TIP3      OH2            14.2239527117      -11.5679387411      -38.9941000337  TIP3      4849            0.0000000000
     36866      5041  TIP3      H1             14.8361155894      -11.7742636225      -38.2621200143  TIP3      4849            0.0000000000
     36867      5041  TIP3      H2             14.5249897581      -10.6678767284      -39.2239702355  TIP3      4849            0.0000000000
     36868      5042  TIP3      OH2             4.8592990324       -6.8968379844      -33.3034949017  TIP3      4850            0.0000000000
     36869      5042  TIP3      H1              5.3083768369       -7.0860137784      -34.1509501758  TIP3      4850            0.0000000000
     36870      5042  TIP3      H2              5.0873415685       -7.6735716851      -32.7694652678  TIP3      4850            0.0000000000
     36871      5043  TIP3      OH2            11.7818839875       -5.1899239742      -39.5687876491  TIP3      4851            0.0000000000
     36872      5043  TIP3      H1             11.4114793984       -4.2973087696      -39.3779047633  TIP3      4851            0.0000000000
     36873      5043  TIP3      H2             11.0302368869       -5.7672685006      -39.2907056895  TIP3      4851            0.0000000000
     36874      5044  TIP3      OH2             1.9927511439       -8.8453360341      -28.1743912876  TIP3      4852            0.0000000000
     36875      5044  TIP3      H1              1.5337072262       -9.3185444194      -27.4680500210  TIP3      4852            0.0000000000
     36876      5044  TIP3      H2              1.4381216435       -9.0667997562      -28.9553848978  TIP3      4852            0.0000000000
     36877      5045  TIP3      OH2             8.6855176670       -9.0460666242      -26.0453102711  TIP3      4853            0.0000000000
     36878      5045  TIP3      H1              8.0295480264       -9.5599404053      -26.5303653082  TIP3      4853            0.0000000000
     36879      5045  TIP3      H2              9.4763302842       -9.6251014447      -26.0716486212  TIP3      4853            0.0000000000
     36880      5046  TIP3      OH2            13.7754756518       -3.8860949699      -27.4873975827  TIP3      4854            0.0000000000
     36881      5046  TIP3      H1             12.9430988774       -3.7998112855      -27.9614403915  TIP3      4854            0.0000000000
     36882      5046  TIP3      H2             13.5359676141       -3.5127157939      -26.6177861164  TIP3      4854            0.0000000000
     36883      5047  TIP3      OH2            19.1667610665      -11.7182964116      -39.3089238675  TIP3      4855            0.0000000000
     36884      5047  TIP3      H1             18.3816887476      -11.8433297810      -39.8753051832  TIP3      4855            0.0000000000
     36885      5047  TIP3      H2             19.1855373667      -10.7410899450      -39.2877586367  TIP3      4855            0.0000000000
     36886      5048  TIP3      OH2            19.1372707518       -6.0375815933      -26.8027740539  TIP3      4856            0.0000000000
     36887      5048  TIP3      H1             18.3340933706       -5.7553540388      -27.2933202485  TIP3      4856            0.0000000000
     36888      5048  TIP3      H2             19.7722100115       -6.1059364034      -27.5574255698  TIP3      4856            0.0000000000
     36889      5049  TIP3      OH2            16.9869966694       -2.7737053527      -39.0240982563  TIP3      4857            0.0000000000
     36890      5049  TIP3      H1             17.1386074526       -3.3579747260      -38.2573846745  TIP3      4857            0.0000000000
     36891      5049  TIP3      H2             17.2990408955       -3.2878942402      -39.7813091609  TIP3      4857            0.0000000000
     36892      5050  TIP3      OH2            14.5422500509       -7.9559260047      -31.8349273232  TIP3      4858            0.0000000000
     36893      5050  TIP3      H1             13.6394418839       -8.2023248246      -32.1114638387  TIP3      4858            0.0000000000
     36894      5050  TIP3      H2             15.0623107197       -8.6557169570      -32.2809884042  TIP3      4858            0.0000000000
     36895      5051  TIP3      OH2             6.9751144485       -3.6368383899      -35.4742520254  TIP3      4859            0.0000000000
     36896      5051  TIP3      H1              7.2119966309       -2.6950339704      -35.4162205292  TIP3      4859            0.0000000000
     36897      5051  TIP3      H2              6.1778930959       -3.5726443669      -36.0183160556  TIP3      4859            0.0000000000
     36898      5052  TIP3      OH2             2.8834441308       -8.6623900158      -41.2618515783  TIP3      4860            0.0000000000
     36899      5052  TIP3      H1              3.3931538322       -8.0799053667      -40.6565323456  TIP3      4860            0.0000000000
     36900      5052  TIP3      H2              1.9596326700       -8.5698423143      -40.9586010409  TIP3      4860            0.0000000000
     36901      5053  TIP3      OH2             8.3747220136       -5.8854280272      -36.2980376108  TIP3      4861            0.0000000000
     36902      5053  TIP3      H1              7.9273568563       -5.0403141605      -36.0815669373  TIP3      4861            0.0000000000
     36903      5053  TIP3      H2              8.0458645106       -6.5091901169      -35.6353415506  TIP3      4861            0.0000000000
     36904      5054  TIP3      OH2             9.3122630933       -1.8065046018      -29.2333694065  TIP3      4862            0.0000000000
     36905      5054  TIP3      H1              9.9556422730       -1.1408176784      -29.5347140750  TIP3      4862            0.0000000000
     36906      5054  TIP3      H2              9.8717427878       -2.3527161790      -28.6392780647  TIP3      4862            0.0000000000
     36907      5055  TIP3      OH2             7.2284679564       -0.9586844286      -36.5433252352  TIP3      4863            0.0000000000
     36908      5055  TIP3      H1              6.2661983559       -1.0044905483      -36.3883954556  TIP3      4863            0.0000000000
     36909      5055  TIP3      H2              7.4120941905       -0.0578552545      -36.2128443898  TIP3      4863            0.0000000000
     36910      5056  TIP3      OH2            12.1213258224       -5.8801802449      -30.1632886843  TIP3      4864            0.0000000000
     36911      5056  TIP3      H1             11.8384280492       -6.1623926909      -29.2667211317  TIP3      4864            0.0000000000
     36912      5056  TIP3      H2             12.5743520298       -6.6831193759      -30.4909195698  TIP3      4864            0.0000000000
     36913      5057  TIP3      OH2            14.8818352235       -4.4166644389      -40.6459003617  TIP3      4865            0.0000000000
     36914      5057  TIP3      H1             15.2141054356       -4.8778305350      -39.8500787360  TIP3      4865            0.0000000000
     36915      5057  TIP3      H2             13.9883252958       -4.8047547012      -40.6732303285  TIP3      4865            0.0000000000
     36916      5058  TIP3      OH2            15.5609939529       -1.4396408804      -28.0626941432  TIP3      4866            0.0000000000
     36917      5058  TIP3      H1             14.6569026165       -1.8038446797      -28.0118834719  TIP3      4866            0.0000000000
     36918      5058  TIP3      H2             15.4508625691       -0.6670849196      -28.6600187199  TIP3      4866            0.0000000000
     36919      5059  TIP3      OH2            19.3374831357       -0.4003254233      -40.7605912052  TIP3      4867            0.0000000000
     36920      5059  TIP3      H1             19.8246265751        0.1789677186      -41.3636753445  TIP3      4867            0.0000000000
     36921      5059  TIP3      H2             18.7224818163        0.2718605395      -40.3761253611  TIP3      4867            0.0000000000
     36922      5060  TIP3      OH2             3.6288847288      -13.8498188898      -28.2861941266  TIP3      4868            0.0000000000
     36923      5060  TIP3      H1              2.8711332125      -13.4693040799      -27.7954356911  TIP3      4868            0.0000000000
     36924      5060  TIP3      H2              3.5833225201      -14.7451913269      -27.9151992711  TIP3      4868            0.0000000000
     36925      5061  TIP3      OH2            15.7064889378       -6.1370763590      -38.7045625079  TIP3      4869            0.0000000000
     36926      5061  TIP3      H1             15.5107255230       -6.8567700705      -38.0615007879  TIP3      4869            0.0000000000
     36927      5061  TIP3      H2             16.6465173802       -5.9828062378      -38.5016309495  TIP3      4869            0.0000000000
     36928      5062  TIP3      OH2             3.3334776269       -1.8148226229      -29.8111590578  TIP3      4870            0.0000000000
     36929      5062  TIP3      H1              3.3661454416       -2.7482867363      -30.0808834171  TIP3      4870            0.0000000000
     36930      5062  TIP3      H2              2.7378462893       -1.8689058400      -29.0563040384  TIP3      4870            0.0000000000
     36931      5063  TIP3      OH2             7.7807038375       -4.1930756750      -39.9689944716  TIP3      4871            0.0000000000
     36932      5063  TIP3      H1              8.4180317906       -4.7103612538      -39.4480633429  TIP3      4871            0.0000000000
     36933      5063  TIP3      H2              7.9897935398       -3.2648653249      -39.6954909601  TIP3      4871            0.0000000000
     36934      5064  TIP3      OH2             4.3226994200       -6.7956741480      -39.6474113359  TIP3      4872            0.0000000000
     36935      5064  TIP3      H1              3.5548802752       -6.3864251992      -39.1842452901  TIP3      4872            0.0000000000
     36936      5064  TIP3      H2              4.7832044905       -6.0051614819      -39.9791077644  TIP3      4872            0.0000000000
     36937      5065  TIP3      OH2            12.0865700708      -14.0416509786      -28.7939076858  TIP3      4873            0.0000000000
     36938      5065  TIP3      H1             12.9532300359      -13.9676971936      -28.3553867280  TIP3      4873            0.0000000000
     36939      5065  TIP3      H2             11.9054475080      -14.9984237005      -28.7199104085  TIP3      4873            0.0000000000
     36940      5066  TIP3      OH2            12.6976906513      -14.3785160579      -37.7613639290  TIP3      4874            0.0000000000
     36941      5066  TIP3      H1             13.1299077924      -13.9982116282      -38.5373968988  TIP3      4874            0.0000000000
     36942      5066  TIP3      H2             13.1769378913      -13.9250230565      -37.0351676026  TIP3      4874            0.0000000000
     36943      5067  TIP3      OH2            10.8360576712       -2.7118916937      -38.9558170013  TIP3      4875            0.0000000000
     36944      5067  TIP3      H1             10.1723367174       -2.0084718990      -38.8938744266  TIP3      4875            0.0000000000
     36945      5067  TIP3      H2             11.3968920262       -2.3537883228      -39.6750841945  TIP3      4875            0.0000000000
     36946      5068  TIP3      OH2             9.9554802722      -12.5496695656      -37.3380776891  TIP3      4876            0.0000000000
     36947      5068  TIP3      H1             10.7593831078      -11.9940612741      -37.2264567953  TIP3      4876            0.0000000000
     36948      5068  TIP3      H2              9.9034210553      -13.0506839645      -36.5028303399  TIP3      4876            0.0000000000
     36949      5069  TIP3      OH2            10.8971513553      -11.5085898241      -28.4585048450  TIP3      4877            0.0000000000
     36950      5069  TIP3      H1             11.0243914284      -11.2310602927      -27.5312299941  TIP3      4877            0.0000000000
     36951      5069  TIP3      H2             11.2579468305      -12.4246130479      -28.4991296681  TIP3      4877            0.0000000000
     36952      5070  TIP3      OH2            10.7879165002      -15.9656812941      -36.7834161801  TIP3      4878            0.0000000000
     36953      5070  TIP3      H1             10.4148170854      -15.3753948290      -36.0891378421  TIP3      4878            0.0000000000
     36954      5070  TIP3      H2             11.5775575258      -15.4234770655      -37.0601472222  TIP3      4878            0.0000000000
     36955      5071  TIP3      OH2             8.0761148507       -1.5723294518      -39.2441121992  TIP3      4879            0.0000000000
     36956      5071  TIP3      H1              8.2790483831       -0.7152937276      -39.6831981777  TIP3      4879            0.0000000000
     36957      5071  TIP3      H2              7.7062505171       -1.2498603475      -38.3970327272  TIP3      4879            0.0000000000
     36958      5072  TIP3      OH2             6.4528749672      -14.6807222367      -39.5169998279  TIP3      4880            0.0000000000
     36959      5072  TIP3      H1              6.4741581094      -13.8478989588      -39.0005960668  TIP3      4880            0.0000000000
     36960      5072  TIP3      H2              7.2695780250      -15.0912214617      -39.1927975913  TIP3      4880            0.0000000000
     36961      5073  TIP3      OH2            16.8791911464      -13.9425514698      -27.1216866348  TIP3      4881            0.0000000000
     36962      5073  TIP3      H1             15.9117395322      -13.9946767799      -27.2506915095  TIP3      4881            0.0000000000
     36963      5073  TIP3      H2             17.1662715907      -13.6923498155      -28.0279192114  TIP3      4881            0.0000000000
     36964      5074  TIP3      OH2            15.4735112278      -10.2858147026      -33.2667878644  TIP3      4882            0.0000000000
     36965      5074  TIP3      H1             14.7425118024      -10.9243333908      -33.2399748619  TIP3      4882            0.0000000000
     36966      5074  TIP3      H2             16.2074386109      -10.7566945632      -32.8122531230  TIP3      4882            0.0000000000
     36967      5075  TIP3      OH2             4.9809282233       -4.2863614624      -41.0018651685  TIP3      4883            0.0000000000
     36968      5075  TIP3      H1              5.7466378542       -3.9541969878      -40.4975264088  TIP3      4883            0.0000000000
     36969      5075  TIP3      H2              5.4481343877       -4.8410206181      -41.6577351377  TIP3      4883            0.0000000000
     36970      5076  TIP3      OH2             3.2930903708      -11.4301917514      -41.6047993258  TIP3      4884            0.0000000000
     36971      5076  TIP3      H1              3.3460748187      -10.4811768995      -41.3895005022  TIP3      4884            0.0000000000
     36972      5076  TIP3      H2              2.5708950388      -11.4312932932      -42.2479234028  TIP3      4884            0.0000000000
     36973      5077  TIP3      OH2            16.4719909969       -0.8206333507      -31.8907820650  TIP3      4885            0.0000000000
     36974      5077  TIP3      H1             16.5652153873       -0.0414111320      -32.4753285307  TIP3      4885            0.0000000000
     36975      5077  TIP3      H2             17.4149639006       -0.9342895101      -31.6616083495  TIP3      4885            0.0000000000
     36976      5078  TIP3      OH2             3.8782667940      -16.8324922103      -32.6599508324  TIP3      4886            0.0000000000
     36977      5078  TIP3      H1              3.7970345847      -16.9700509829      -33.6274935911  TIP3      4886            0.0000000000
     36978      5078  TIP3      H2              3.6240255627      -17.7203504146      -32.3286476494  TIP3      4886            0.0000000000
     36979      5079  TIP3      OH2             2.5999905686       -3.4310964954      -37.5356531385  TIP3      4887            0.0000000000
     36980      5079  TIP3      H1              2.2677445548       -3.1331925591      -36.6777080273  TIP3      4887            0.0000000000
     36981      5079  TIP3      H2              2.6896828023       -2.5755983503      -38.0243937610  TIP3      4887            0.0000000000
     36982      5080  TIP3      OH2             1.8695768619       -0.2411351746      -25.6600567158  TIP3      4888            0.0000000000
     36983      5080  TIP3      H1              2.4847191492       -0.5542519024      -24.9871051739  TIP3      4888            0.0000000000
     36984      5080  TIP3      H2              1.4800800148       -1.0980344920      -25.9218018847  TIP3      4888            0.0000000000
     36985      5081  TIP3      OH2            11.7154427945       -1.6964671329      -41.3965635200  TIP3      4889            0.0000000000
     36986      5081  TIP3      H1             11.1224597776       -2.2878890196      -41.9161595676  TIP3      4889            0.0000000000
     36987      5081  TIP3      H2             12.3787954014       -1.4614817624      -42.0635914884  TIP3      4889            0.0000000000
     36988      5082  TIP3      OH2            13.3212054391       -2.5667278397      -25.1089237442  TIP3      4890            0.0000000000
     36989      5082  TIP3      H1             12.8826674179       -3.2890175332      -24.6097381091  TIP3      4890            0.0000000000
     36990      5082  TIP3      H2             14.1489676155       -2.5478779211      -24.5990339703  TIP3      4890            0.0000000000
     36991      5083  TIP3      OH2            15.9061195806       -2.0970001675      -42.2680082734  TIP3      4891            0.0000000000
     36992      5083  TIP3      H1             15.5841072972       -2.8043161042      -41.6658499083  TIP3      4891            0.0000000000
     36993      5083  TIP3      H2             16.8588711820       -2.2353669590      -42.1367005133  TIP3      4891            0.0000000000
     36994      5084  TIP3      OH2             6.7047345466       -6.2080655447      -42.1789871874  TIP3      4892            0.0000000000
     36995      5084  TIP3      H1              7.3282162164       -6.3214033029      -41.4436699656  TIP3      4892            0.0000000000
     36996      5084  TIP3      H2              7.1393037236       -6.7336976820      -42.8817230492  TIP3      4892            0.0000000000
     36997      5085  TIP3      OH2             8.7462592120       -6.3444410521      -25.3453924895  TIP3      4893            0.0000000000
     36998      5085  TIP3      H1              8.4605887196       -5.7850810459      -26.1054424294  TIP3      4893            0.0000000000
     36999      5085  TIP3      H2              8.6298754303       -7.2727814304      -25.6724247137  TIP3      4893            0.0000000000
     37000      5086  TIP3      OH2            14.3436119216       -6.7441661054      -27.4598678373  TIP3      4894            0.0000000000
     37001      5086  TIP3      H1             15.2263490866       -6.3313517455      -27.5591538923  TIP3      4894            0.0000000000
     37002      5086  TIP3      H2             13.8084117189       -5.9335911714      -27.3253520204  TIP3      4894            0.0000000000
     37003      5087  TIP3      OH2             3.3375046854       -8.8752117850      -24.9468543080  TIP3      4895            0.0000000000
     37004      5087  TIP3      H1              3.5992740602       -9.6426021691      -24.4124919165  TIP3      4895            0.0000000000
     37005      5087  TIP3      H2              2.4801692112       -8.6822399167      -24.4933450853  TIP3      4895            0.0000000000
     37006      5088  TIP3      OH2             7.7171297751       -7.8325956447      -39.8855354323  TIP3      4896            0.0000000000
     37007      5088  TIP3      H1              7.0588432867       -8.3722450253      -39.4073646218  TIP3      4896            0.0000000000
     37008      5088  TIP3      H2              8.0151336567       -8.4699670698      -40.5574725552  TIP3      4896            0.0000000000
     37009      5089  TIP3      OH2             6.6987838313      -10.1523180055      -27.9142136672  TIP3      4897            0.0000000000
     37010      5089  TIP3      H1              6.0180216753       -9.4673682062      -28.0785315123  TIP3      4897            0.0000000000
     37011      5089  TIP3      H2              7.4465016708       -9.7758007867      -28.4200042365  TIP3      4897            0.0000000000
     37012      5090  TIP3      OH2             8.7356775045       -9.7168300295      -42.0256241063  TIP3      4898            0.0000000000
     37013      5090  TIP3      H1              9.0486214725       -9.7074476411      -42.9492159801  TIP3      4898            0.0000000000
     37014      5090  TIP3      H2              9.5994604556       -9.6159120256      -41.5402200725  TIP3      4898            0.0000000000
     37015      5091  TIP3      OH2            12.0841514791       -7.7347047958      -24.0571362098  TIP3      4899            0.0000000000
     37016      5091  TIP3      H1             12.7189637826       -8.0694563199      -24.7054200972  TIP3      4899            0.0000000000
     37017      5091  TIP3      H2             11.8913022349       -8.5324477245      -23.5309764158  TIP3      4899            0.0000000000
     37018      5092  TIP3      OH2            17.9101977256       -6.9150283677       42.3125549996  TIP3      4900            0.0000000000
     37019      5092  TIP3      H1             17.5831768596       -6.6972217991       41.4260668762  TIP3      4900            0.0000000000
     37020      5092  TIP3      H2             17.9937878406       -6.0465318843       42.7274232851  TIP3      4900            0.0000000000
     37021      5093  TIP3      OH2             7.7684714299      -12.4978574287      -26.8757191744  TIP3      4901            0.0000000000
     37022      5093  TIP3      H1              7.6726392079      -13.2342228646      -27.5117064812  TIP3      4901            0.0000000000
     37023      5093  TIP3      H2              7.6237865564      -11.7117714540      -27.4442416747  TIP3      4901            0.0000000000
     37024      5094  TIP3      OH2             7.7843637131      -14.5797812874      -29.0017924637  TIP3      4902            0.0000000000
     37025      5094  TIP3      H1              8.4098198689      -14.0358569924      -29.5340741006  TIP3      4902            0.0000000000
     37026      5094  TIP3      H2              6.9907967595      -14.5188563288      -29.5698789289  TIP3      4902            0.0000000000
     37027      5095  TIP3      OH2             8.9338125484       -8.7936614481      -29.0459975950  TIP3      4903            0.0000000000
     37028      5095  TIP3      H1              9.8027507146       -8.3906413788      -29.1779224576  TIP3      4903            0.0000000000
     37029      5095  TIP3      H2              8.3363904308       -8.1052053998      -29.4077494264  TIP3      4903            0.0000000000
     37030      5096  TIP3      OH2            13.6371893665      -11.7077989172      -23.4724499905  TIP3      4904            0.0000000000
     37031      5096  TIP3      H1             14.0893857646      -12.5319373409      -23.2420348958  TIP3      4904            0.0000000000
     37032      5096  TIP3      H2             14.3931578995      -11.0963250429      -23.5488672513  TIP3      4904            0.0000000000
     37033      5097  TIP3      OH2            14.9966374647       -8.3127915583      -25.4610123256  TIP3      4905            0.0000000000
     37034      5097  TIP3      H1             14.6467962074       -7.7780462331      -26.2117625095  TIP3      4905            0.0000000000
     37035      5097  TIP3      H2             15.9503899186       -8.3451676454      -25.6720857907  TIP3      4905            0.0000000000
     37036      5098  TIP3      OH2             6.1906417262      -11.6917438295      -24.5653386973  TIP3      4906            0.0000000000
     37037      5098  TIP3      H1              5.2242462537      -11.5955187009      -24.6389116741  TIP3      4906            0.0000000000
     37038      5098  TIP3      H2              6.4675337177      -12.0113430688      -25.4432238651  TIP3      4906            0.0000000000
     37039      5099  TIP3      OH2             8.6959292003      -17.0585872973      -29.0891414660  TIP3      4907            0.0000000000
     37040      5099  TIP3      H1              8.3984114349      -16.1229880924      -29.0158990042  TIP3      4907            0.0000000000
     37041      5099  TIP3      H2              7.8471266604      -17.4942653801      -29.2523569772  TIP3      4907            0.0000000000
     37042      5100  TIP3      OH2             9.5920684279      -12.9721616535      -24.7886728778  TIP3      4908            0.0000000000
     37043      5100  TIP3      H1              8.8915500579      -13.1830085043      -24.1325702647  TIP3      4908            0.0000000000
     37044      5100  TIP3      H2              9.0275423845      -12.9669334828      -25.5933415462  TIP3      4908            0.0000000000
     37045      5101  TIP3      OH2            12.5655956554      -13.7680855552      -25.8389515308  TIP3      4909            0.0000000000
     37046      5101  TIP3      H1             11.6013285948      -13.8764858770      -25.7829069750  TIP3      4909            0.0000000000
     37047      5101  TIP3      H2             12.8667387656      -14.2298614024      -25.0525546012  TIP3      4909            0.0000000000
     37048      5102  TIP3      OH2             3.6517052792      -13.5765203250      -24.7738463043  TIP3      4910            0.0000000000
     37049      5102  TIP3      H1              4.0293266321      -14.3543942510      -25.2024011856  TIP3      4910            0.0000000000
     37050      5102  TIP3      H2              4.0770836515      -13.6409432126      -23.8963304348  TIP3      4910            0.0000000000
     37051      5103  TIP3      OH2             8.5845968920      -17.2142650109      -26.3821077049  TIP3      4911            0.0000000000
     37052      5103  TIP3      H1              9.2833887634      -17.8859391528      -26.2521168840  TIP3      4911            0.0000000000
     37053      5103  TIP3      H2              8.5854577509      -17.1933554291      -27.3597901069  TIP3      4911            0.0000000000
     37054      5104  TIP3      OH2             8.5976148452      -16.4010800388      -23.4476167334  TIP3      4912            0.0000000000
     37055      5104  TIP3      H1              8.5063638931      -16.8089035454      -24.3265279012  TIP3      4912            0.0000000000
     37056      5104  TIP3      H2              8.0960348301      -15.5724181697      -23.5807671046  TIP3      4912            0.0000000000
     37057      5105  TIP3      OH2             8.6324589110        0.6848339391      -40.6471627465  TIP3      4913            0.0000000000
     37058      5105  TIP3      H1              9.5282008993        1.0343774785      -40.4907297430  TIP3      4913            0.0000000000
     37059      5105  TIP3      H2              8.6270791565        0.7032008210      -41.6207592393  TIP3      4913            0.0000000000
     37060      5106  TIP3      OH2             2.0658428718       -4.8451881626      -41.1497427313  TIP3      4914            0.0000000000
     37061      5106  TIP3      H1              3.0305302857       -4.6704513593      -41.1199510099  TIP3      4914            0.0000000000
     37062      5106  TIP3      H2              1.9589040034       -5.0292807270      -42.0999816680  TIP3      4914            0.0000000000
     37063      5107  TIP3      OH2             0.7743132592        0.7884107525      -35.8872184075  TIP3      4915            0.0000000000
     37064      5107  TIP3      H1              0.2028075388        0.2175410811      -36.4493801217  TIP3      4915            0.0000000000
     37065      5107  TIP3      H2              1.0340758215        0.1331458221      -35.2096014851  TIP3      4915            0.0000000000
     37066      5108  TIP3      OH2             1.6900100271       -1.1218551384      -34.2354556864  TIP3      4916            0.0000000000
     37067      5108  TIP3      H1              0.8402345038       -1.5241593143      -33.9282947350  TIP3      4916            0.0000000000
     37068      5108  TIP3      H2              2.0159302099       -0.7798681712      -33.3688381648  TIP3      4916            0.0000000000
     37069      5109  TIP3      OH2            19.1429822017       -0.1980152665      -31.4705192851  TIP3      4917            0.0000000000
     37070      5109  TIP3      H1             19.3663220665       -0.0568838710      -30.5334759355  TIP3      4917            0.0000000000
     37071      5109  TIP3      H2             19.6716906372        0.5012696976      -31.8704518704  TIP3      4917            0.0000000000
     37072      5110  TIP3      OH2            18.7292239455       -0.7094643864      -28.6999394122  TIP3      4918            0.0000000000
     37073      5110  TIP3      H1             18.4326523590       -1.5376977340      -29.1434816323  TIP3      4918            0.0000000000
     37074      5110  TIP3      H2             19.1741615691       -1.1043073334      -27.9298225644  TIP3      4918            0.0000000000
     37075      5111  TIP3      OH2            17.3642381398       -4.9635937883      -23.5564837920  TIP3      4919            0.0000000000
     37076      5111  TIP3      H1             16.5191885430       -4.9095611139      -23.0754796862  TIP3      4919            0.0000000000
     37077      5111  TIP3      H2             17.4062581187       -4.0661207880      -23.9015099641  TIP3      4919            0.0000000000
     37078      5112  TIP3      OH2            18.5633923426       -6.6446427362      -38.6773021998  TIP3      4920            0.0000000000
     37079      5112  TIP3      H1             19.4287818464       -6.2018358724      -38.5472802974  TIP3      4920            0.0000000000
     37080      5112  TIP3      H2             18.5152637480       -7.1875466169      -37.8584519972  TIP3      4920            0.0000000000
     37081      5113  TIP3      OH2            18.9382327093       -8.6568473405      -36.7520122120  TIP3      4921            0.0000000000
     37082      5113  TIP3      H1             18.1181526596       -8.9499113511      -36.2875969265  TIP3      4921            0.0000000000
     37083      5113  TIP3      H2             19.5019106013       -8.4720877070      -35.9760471255  TIP3      4921            0.0000000000
     37084      5114  TIP3      OH2            18.7401218417       -5.8028123697      -31.5598036103  TIP3      4922            0.0000000000
     37085      5114  TIP3      H1             19.3549206557       -6.4746990518      -31.9267956299  TIP3      4922            0.0000000000
     37086      5114  TIP3      H2             19.1799806036       -4.9501040623      -31.7792514339  TIP3      4922            0.0000000000
     37087      5115  TIP3      OH2            17.4152862421       -3.1006008043      -29.4561207123  TIP3      4923            0.0000000000
     37088      5115  TIP3      H1             16.6704622018       -2.6735228719      -28.9889361257  TIP3      4923            0.0000000000
     37089      5115  TIP3      H2             17.0055299876       -3.4253220631      -30.2968920998  TIP3      4923            0.0000000000
     37090      5116  TIP3      OH2            18.9058450982       -8.8889060015      -40.2770268559  TIP3      4924            0.0000000000
     37091      5116  TIP3      H1             18.2734933757       -8.6292136242      -40.9662683085  TIP3      4924            0.0000000000
     37092      5116  TIP3      H2             18.7277344381       -8.2117754713      -39.5862926454  TIP3      4924            0.0000000000
     37093      5117  TIP3      OH2            16.7145923328      -11.7134519907      -41.2517690804  TIP3      4925            0.0000000000
     37094      5117  TIP3      H1             17.3664568013      -11.2094627770      -41.7532037178  TIP3      4925            0.0000000000
     37095      5117  TIP3      H2             16.8250679133      -12.6180033108      -41.6165763163  TIP3      4925            0.0000000000
     37096      5118  TIP3      OH2            16.8609400922       -9.8550467639      -35.5685384518  TIP3      4926            0.0000000000
     37097      5118  TIP3      H1             16.6967879147      -10.7631558377      -35.8789177934  TIP3      4926            0.0000000000
     37098      5118  TIP3      H2             16.6076852620       -9.9244353830      -34.6237057881  TIP3      4926            0.0000000000
     37099      5119  TIP3      OH2             1.7828778911       -7.8225210877      -31.9167917606  TIP3      4927            0.0000000000
     37100      5119  TIP3      H1              1.7381935123       -8.1455083818      -32.8435989602  TIP3      4927            0.0000000000
     37101      5119  TIP3      H2              2.6213819488       -8.2760818769      -31.6558777917  TIP3      4927            0.0000000000
     37102      5120  TIP3      OH2            17.7075028088       -8.2092613515      -26.1657845879  TIP3      4928            0.0000000000
     37103      5120  TIP3      H1             18.2915461665       -9.0043961038      -26.1169845836  TIP3      4928            0.0000000000
     37104      5120  TIP3      H2             18.3284909552       -7.4915880168      -26.4193810052  TIP3      4928            0.0000000000
     37105      5121  TIP3      OH2            18.9038706032      -10.6485707936      -26.0940654844  TIP3      4929            0.0000000000
     37106      5121  TIP3      H1             17.9807297876      -10.9569009778      -25.9180033359  TIP3      4929            0.0000000000
     37107      5121  TIP3      H2             19.4021297098      -11.4825864311      -25.9222636046  TIP3      4929            0.0000000000
     37108      5122  TIP3      OH2            17.0068105502      -14.0166037797      -42.6137640550  TIP3      4930            0.0000000000
     37109      5122  TIP3      H1             17.6246049041      -14.5166637219      -42.0275838632  TIP3      4930            0.0000000000
     37110      5122  TIP3      H2             16.1355709823      -14.1331109090      -42.1939247441  TIP3      4930            0.0000000000
     37111      5123  TIP3      OH2            16.2391025762      -12.2496009934      -37.2956517134  TIP3      4931            0.0000000000
     37112      5123  TIP3      H1             16.5987481816      -13.1008443631      -36.9727000378  TIP3      4931            0.0000000000
     37113      5123  TIP3      H2             16.6062406877      -12.2745168911      -38.1972422671  TIP3      4931            0.0000000000
     37114      5124  TIP3      OH2            17.3786041777      -11.6306718813      -32.0161585496  TIP3      4932            0.0000000000
     37115      5124  TIP3      H1             18.3649573156      -11.5981557679      -32.0421410380  TIP3      4932            0.0000000000
     37116      5124  TIP3      H2             17.2525965531      -11.5335555010      -31.0527997807  TIP3      4932            0.0000000000
     37117      5125  TIP3      OH2            17.2881577106      -11.1003050628      -29.3082057494  TIP3      4933            0.0000000000
     37118      5125  TIP3      H1             16.5818690369      -10.8294242269      -28.6912859519  TIP3      4933            0.0000000000
     37119      5125  TIP3      H2             17.7386465136      -10.2328016314      -29.4714587198  TIP3      4933            0.0000000000
     37120      5126  TIP3      OH2             1.3471221234      -13.3239820113      -26.2389198157  TIP3      4934            0.0000000000
     37121      5126  TIP3      H1              2.1787115893      -13.1474668940      -25.7379400101  TIP3      4934            0.0000000000
     37122      5126  TIP3      H2              0.9488105480      -13.9802147957      -25.6433847687  TIP3      4934            0.0000000000
     37123      5127  TIP3      OH2            20.1376231746      -17.1608497172      -23.5301088709  TIP3      4935            0.0000000000
     37124      5127  TIP3      H1             20.3790915833      -17.6907818491      -24.3086703135  TIP3      4935            0.0000000000
     37125      5127  TIP3      H2             19.8535053417      -16.3083265591      -23.8851404986  TIP3      4935            0.0000000000
     37126      5128  TIP3      OH2            16.7278273734      -15.1277701793      -37.0310635214  TIP3      4936            0.0000000000
     37127      5128  TIP3      H1             17.3705983671      -15.5577205494      -36.4229625047  TIP3      4936            0.0000000000
     37128      5128  TIP3      H2             16.5174823416      -15.8484828006      -37.6526536458  TIP3      4936            0.0000000000
     37129      5129  TIP3      OH2             2.7251058664      -14.4022026972      -32.2244688167  TIP3      4937            0.0000000000
     37130      5129  TIP3      H1              3.0881005001      -15.3062419290      -32.3666924642  TIP3      4937            0.0000000000
     37131      5129  TIP3      H2              3.5134660131      -13.8341222003      -32.2016156091  TIP3      4937            0.0000000000
     37132      5130  TIP3      OH2             1.0234780851      -11.3808228932      -31.7939047807  TIP3      4938            0.0000000000
     37133      5130  TIP3      H1              1.5728138158      -11.5054123845      -32.5902341469  TIP3      4938            0.0000000000
     37134      5130  TIP3      H2              1.5506727425      -10.7331599546      -31.3037306976  TIP3      4938            0.0000000000
     37135      5131  TIP3      OH2            18.4192267551      -15.3645144491      -25.3668861300  TIP3      4939            0.0000000000
     37136      5131  TIP3      H1             17.7953002879      -14.7810940199      -25.8621343444  TIP3      4939            0.0000000000
     37137      5131  TIP3      H2             18.7649398324      -15.8577739378      -26.1331091733  TIP3      4939            0.0000000000
     37138      5132  TIP3      OH2            19.0320797519      -14.8859787355      -41.0367365020  TIP3      4940            0.0000000000
     37139      5132  TIP3      H1             19.4720908809      -15.5579920417      -41.5808645130  TIP3      4940            0.0000000000
     37140      5132  TIP3      H2             19.7956945876      -14.3119851738      -40.8140002208  TIP3      4940            0.0000000000
     37141      5133  TIP3      OH2             1.2941977513      -15.4580962391      -37.8737912641  TIP3      4941            0.0000000000
     37142      5133  TIP3      H1              0.3732246961      -15.7328014885      -37.8130524930  TIP3      4941            0.0000000000
     37143      5133  TIP3      H2              1.2900861101      -14.7804089197      -38.5815389742  TIP3      4941            0.0000000000
     37144      5134  TIP3      OH2            16.1532587500       -0.0428390857      -35.6155539450  TIP3      4942            0.0000000000
     37145      5134  TIP3      H1             16.8332256782       -0.4201148604      -36.2118599954  TIP3      4942            0.0000000000
     37146      5134  TIP3      H2             16.6574558903        0.1426054908      -34.8094896970  TIP3      4942            0.0000000000
     37147      5135  TIP3      OH2             1.2431983538      -16.5314214033      -29.4433797145  TIP3      4943            0.0000000000
     37148      5135  TIP3      H1              0.5254144382      -16.9448508915      -28.9332834419  TIP3      4943            0.0000000000
     37149      5135  TIP3      H2              0.7992771246      -15.8834635746      -30.0120769597  TIP3      4943            0.0000000000
     37150      5136  TIP3      OH2             3.9125786408       -2.7221548169      -24.6562850612  TIP3      4944            0.0000000000
     37151      5136  TIP3      H1              3.0081474471       -2.8037342287      -25.0471099563  TIP3      4944            0.0000000000
     37152      5136  TIP3      H2              4.1025452510       -3.6403805954      -24.4160327824  TIP3      4944            0.0000000000
     37153      5137  TIP3      OH2             6.7232597204       -1.6065851783      -28.4171478745  TIP3      4945            0.0000000000
     37154      5137  TIP3      H1              6.5391813001       -0.8679868066      -29.0382191602  TIP3      4945            0.0000000000
     37155      5137  TIP3      H2              7.6529675880       -1.8109356526      -28.6604361420  TIP3      4945            0.0000000000
     37156      5138  TIP3      OH2            10.6083864896       -0.6857501260      -26.1676584079  TIP3      4946            0.0000000000
     37157      5138  TIP3      H1             10.9959188793       -1.2359073727      -25.4792923045  TIP3      4946            0.0000000000
     37158      5138  TIP3      H2             11.4017152919       -0.3148585968      -26.6018200909  TIP3      4946            0.0000000000
     37159      5139  TIP3      OH2            12.7843021794        0.8895946479      -26.7848531310  TIP3      4947            0.0000000000
     37160      5139  TIP3      H1             13.5255874117        0.3168153845      -27.0356344033  TIP3      4947            0.0000000000
     37161      5139  TIP3      H2             12.9092586476        0.9638123603      -25.8136816334  TIP3      4947            0.0000000000
     37162      5140  TIP3      OH2            17.9108576863      -17.1015250263      -27.5102572866  TIP3      4948            0.0000000000
     37163      5140  TIP3      H1             17.1691590456      -16.5988604716      -27.8803309911  TIP3      4948            0.0000000000
     37164      5140  TIP3      H2             17.7737325157      -17.9692697164      -27.9268036140  TIP3      4948            0.0000000000
     37165      5141  TIP3      OH2             4.0149707477        1.3745771479      -29.0110406264  TIP3      4949            0.0000000000
     37166      5141  TIP3      H1              3.3253681432        2.0584044019      -29.1253182449  TIP3      4949            0.0000000000
     37167      5141  TIP3      H2              3.6105777197        0.8203897157      -28.3365800867  TIP3      4949            0.0000000000
     37168      5142  TIP3      OH2             6.2583758779        0.5031547594      -30.0114665219  TIP3      4950            0.0000000000
     37169      5142  TIP3      H1              5.3386401682        0.6356036719      -29.6601640403  TIP3      4950            0.0000000000
     37170      5142  TIP3      H2              6.2748192061        1.1907862907      -30.6920839865  TIP3      4950            0.0000000000
     37171      5143  TIP3      OH2            10.6823014049        0.1532885301      -30.6775551159  TIP3      4951            0.0000000000
     37172      5143  TIP3      H1             10.2227167102        0.5628818723      -31.4164908330  TIP3      4951            0.0000000000
     37173      5143  TIP3      H2             10.7734199432        0.9054295722      -30.0513907040  TIP3      4951            0.0000000000
     37174      5144  TIP3      OH2            12.7531183642       -1.0321736403      -29.3028907460  TIP3      4952            0.0000000000
     37175      5144  TIP3      H1             12.0542969837       -0.6635408682      -29.8870399452  TIP3      4952            0.0000000000
     37176      5144  TIP3      H2             13.5087013903       -0.4667884686      -29.5576912711  TIP3      4952            0.0000000000
     37177      5145  TIP3      OH2            15.3369428910        0.4392066109      -29.8708667186  TIP3      4953            0.0000000000
     37178      5145  TIP3      H1             15.7192109935        1.2400775367      -30.2536444544  TIP3      4953            0.0000000000
     37179      5145  TIP3      H2             15.6112448244       -0.1882166611      -30.5866072264  TIP3      4953            0.0000000000
     37180      5146  TIP3      OH2             3.1741098179       -0.4355385561      -32.1535530209  TIP3      4954            0.0000000000
     37181      5146  TIP3      H1              3.0618849214       -0.8406644214      -31.2618039455  TIP3      4954            0.0000000000
     37182      5146  TIP3      H2              4.0105893663       -0.8604635859      -32.4549175086  TIP3      4954            0.0000000000
     37183      5147  TIP3      OH2             5.3977484316       -1.4076037480      -33.2393700032  TIP3      4955            0.0000000000
     37184      5147  TIP3      H1              5.2037032056       -2.3691942413      -33.0864923374  TIP3      4955            0.0000000000
     37185      5147  TIP3      H2              6.2503932498       -1.3634406434      -32.7394911250  TIP3      4955            0.0000000000
     37186      5148  TIP3      OH2             7.7131574176       -1.6852928259      -32.0002156622  TIP3      4956            0.0000000000
     37187      5148  TIP3      H1              7.9870704859       -2.6174120118      -32.1141215669  TIP3      4956            0.0000000000
     37188      5148  TIP3      H2              8.1998562665       -1.4608101972      -31.1938014400  TIP3      4956            0.0000000000
     37189      5149  TIP3      OH2            11.0171023449      -15.6213633089      -33.1978158267  TIP3      4957            0.0000000000
     37190      5149  TIP3      H1             10.1944772211      -16.0888224045      -32.9343736889  TIP3      4957            0.0000000000
     37191      5149  TIP3      H2             11.4314224942      -16.2966369677      -33.7467354595  TIP3      4957            0.0000000000
     37192      5150  TIP3      OH2            16.7892154691      -17.4011414963      -33.3116432164  TIP3      4958            0.0000000000
     37193      5150  TIP3      H1             17.3968376225      -16.8402526107      -33.8563514217  TIP3      4958            0.0000000000
     37194      5150  TIP3      H2             15.9103737868      -17.0729659361      -33.5951974172  TIP3      4958            0.0000000000
     37195      5151  TIP3      OH2            18.3987401039      -16.3746486347      -35.2989775430  TIP3      4959            0.0000000000
     37196      5151  TIP3      H1             19.0873866056      -16.9020478015      -35.7628324094  TIP3      4959            0.0000000000
     37197      5151  TIP3      H2             18.9492134692      -15.6176450244      -34.9844544353  TIP3      4959            0.0000000000
     37198      5152  TIP3      OH2             3.7085916346      -17.3193954739      -35.4533934121  TIP3      4960            0.0000000000
     37199      5152  TIP3      H1              2.8886856469      -17.4866897519      -35.9651006892  TIP3      4960            0.0000000000
     37200      5152  TIP3      H2              4.2280448660      -18.1270126625      -35.6653018518  TIP3      4960            0.0000000000
     37201      5153  TIP3      OH2             2.4478155423      -17.2230909279      -39.7370590952  TIP3      4961            0.0000000000
     37202      5153  TIP3      H1              3.0304246074      -16.6654444918      -40.3038025838  TIP3      4961            0.0000000000
     37203      5153  TIP3      H2              2.0832639030      -16.5840762993      -39.0908512622  TIP3      4961            0.0000000000
     37204      5154  TIP3      OH2             8.0959376255      -17.4784448086      -35.6174621381  TIP3      4962            0.0000000000
     37205      5154  TIP3      H1              8.9317033533      -17.4712412712      -36.1073062114  TIP3      4962            0.0000000000
     37206      5154  TIP3      H2              8.3220542350      -16.9832628880      -34.8158934852  TIP3      4962            0.0000000000
     37207      5155  TIP3      OH2            14.1625637811      -16.9771755634      -34.2374362003  TIP3      4963            0.0000000000
     37208      5155  TIP3      H1             13.8762061947      -16.7568547275      -35.1325874892  TIP3      4963            0.0000000000
     37209      5155  TIP3      H2             13.6536782421      -17.8037878620      -34.0548556561  TIP3      4963            0.0000000000
     37210      5156  TIP3      OH2            15.2661256441      -17.0525359266      -38.9459980484  TIP3      4964            0.0000000000
     37211      5156  TIP3      H1             14.5607576206      -16.8001452090      -39.5677341095  TIP3      4964            0.0000000000
     37212      5156  TIP3      H2             14.8322967079      -17.7513912569      -38.4021826023  TIP3      4964            0.0000000000
     37213      5157  TIP3      OH2             2.2674192015       -1.0617818722      -38.7915582680  TIP3      4965            0.0000000000
     37214      5157  TIP3      H1              1.4206550244       -1.0734103134      -39.2794202688  TIP3      4965            0.0000000000
     37215      5157  TIP3      H2              2.5568885962       -0.1674737012      -39.0619923889  TIP3      4965            0.0000000000
     37216      5158  TIP3      OH2             4.1566279533      -15.8922049062      -41.2616060188  TIP3      4966            0.0000000000
     37217      5158  TIP3      H1              5.0116193678      -16.3317426888      -41.3686458172  TIP3      4966            0.0000000000
     37218      5158  TIP3      H2              4.4240599692      -15.0385979273      -40.8802107459  TIP3      4966            0.0000000000
     37219      5159  TIP3      OH2             9.4731457582      -14.7094725746      -38.9314295058  TIP3      4967            0.0000000000
     37220      5159  TIP3      H1              9.8671992732      -15.3030491759      -38.2676472884  TIP3      4967            0.0000000000
     37221      5159  TIP3      H2              9.6317807770      -13.8496384977      -38.4781722640  TIP3      4967            0.0000000000
     37222      5160  TIP3      OH2            11.4406202523        0.8209957555      -40.5354295553  TIP3      4968            0.0000000000
     37223      5160  TIP3      H1             12.3075038193        1.0298519124      -40.9397206846  TIP3      4968            0.0000000000
     37224      5160  TIP3      H2             11.4196670456       -0.1188163276      -40.8191405633  TIP3      4968            0.0000000000
     37225      5161  TIP3      OH2            17.8321379109       -0.6393996973      -37.6153218907  TIP3      4969            0.0000000000
     37226      5161  TIP3      H1             17.6704972001       -1.4585369978      -38.1385681839  TIP3      4969            0.0000000000
     37227      5161  TIP3      H2             17.8092980489        0.0171606082      -38.3342343324  TIP3      4969            0.0000000000
     37228      5162  TIP3      OH2             3.3438702477      -16.3518389739      -26.1319670339  TIP3      4970            0.0000000000
     37229      5162  TIP3      H1              2.8617205101      -17.1913998959      -25.9865908234  TIP3      4970            0.0000000000
     37230      5162  TIP3      H2              4.1662876665      -16.5216631555      -25.6277168243  TIP3      4970            0.0000000000
     37231      5163  TIP3      OH2             5.2780131422      -17.0818073152      -24.1603985991  TIP3      4971            0.0000000000
     37232      5163  TIP3      H1              6.1799561159      -17.3725737717      -24.3804914586  TIP3      4971            0.0000000000
     37233      5163  TIP3      H2              4.9181777830      -17.8821593851      -23.7237356100  TIP3      4971            0.0000000000
     37234      5164  TIP3      OH2             4.5850290902        0.1005053185      -41.8282246247  TIP3      4972            0.0000000000
     37235      5164  TIP3      H1              3.7815284963        0.3273461462      -41.3441425847  TIP3      4972            0.0000000000
     37236      5164  TIP3      H2              4.8188034550       -0.7851461709      -41.5324231942  TIP3      4972            0.0000000000
     37237      5165  TIP3      OH2            14.1011181477      -17.8126385515      -24.0981782282  TIP3      4973            0.0000000000
     37238      5165  TIP3      H1             14.2679520452      -18.1331829015      -23.1955977486  TIP3      4973            0.0000000000
     37239      5165  TIP3      H2             14.9809826631      -17.9338478546      -24.4950389266  TIP3      4973            0.0000000000
     37240      5166  TIP3      OH2            17.2829337560       -1.7227978594      -25.9883115018  TIP3      4974            0.0000000000
     37241      5166  TIP3      H1             16.7597958026       -1.5982113285      -26.8056550707  TIP3      4974            0.0000000000
     37242      5166  TIP3      H2             16.9209405336       -1.0185781422      -25.4337484775  TIP3      4974            0.0000000000
     37243      5167  TIP3      OH2            31.8893655624       -7.7521123680      -35.6382722780  TIP3      4975            0.0000000000
     37244      5167  TIP3      H1             31.7409681779       -6.8012053374      -35.8296743683  TIP3      4975            0.0000000000
     37245      5167  TIP3      H2             31.1207450535       -8.1313019966      -36.0897384525  TIP3      4975            0.0000000000
     37246      5168  TIP3      OH2            30.4645877144       -8.8438317436      -32.2998376429  TIP3      4976            0.0000000000
     37247      5168  TIP3      H1             30.5852877726       -9.2120680933      -31.4000123062  TIP3      4976            0.0000000000
     37248      5168  TIP3      H2             29.7993228317       -9.4340769811      -32.7133966136  TIP3      4976            0.0000000000
     37249      5169  TIP3      OH2            22.6743269778       -8.8591888779      -30.7474833174  TIP3      4977            0.0000000000
     37250      5169  TIP3      H1             22.6944625180       -9.5881894507      -30.1004393645  TIP3      4977            0.0000000000
     37251      5169  TIP3      H2             23.4816414558       -8.3827507761      -30.4939090543  TIP3      4977            0.0000000000
     37252      5170  TIP3      OH2            34.0817029926       -5.9559050934      -33.9146130920  TIP3      4978            0.0000000000
     37253      5170  TIP3      H1             33.6528418016       -6.7195037563      -33.4979190121  TIP3      4978            0.0000000000
     37254      5170  TIP3      H2             34.1009953993       -5.3436611394      -33.1706374447  TIP3      4978            0.0000000000
     37255      5171  TIP3      OH2            23.7149317393       -4.4837499626      -32.3561121035  TIP3      4979            0.0000000000
     37256      5171  TIP3      H1             23.4701446803       -5.3995443130      -32.6034501538  TIP3      4979            0.0000000000
     37257      5171  TIP3      H2             24.6648064472       -4.5041522275      -32.5754040007  TIP3      4979            0.0000000000
     37258      5172  TIP3      OH2            20.6015981573      -11.0238522698      -36.8669141978  TIP3      4980            0.0000000000
     37259      5172  TIP3      H1             20.2995865355      -10.1445552502      -36.5665872213  TIP3      4980            0.0000000000
     37260      5172  TIP3      H2             20.0702042079      -11.1237943210      -37.6762406961  TIP3      4980            0.0000000000
     37261      5173  TIP3      OH2            20.8658784926       -8.6319481049      -34.3593843814  TIP3      4981            0.0000000000
     37262      5173  TIP3      H1             21.3769785834       -9.4542440820      -34.1514254742  TIP3      4981            0.0000000000
     37263      5173  TIP3      H2             21.5389288862       -7.9325528098      -34.2741661046  TIP3      4981            0.0000000000
     37264      5174  TIP3      OH2            31.4024825438       -0.6542549211      -34.1244705382  TIP3      4982            0.0000000000
     37265      5174  TIP3      H1             32.1688324694       -1.2225541663      -34.3674298466  TIP3      4982            0.0000000000
     37266      5174  TIP3      H2             31.1785555548       -1.0679314509      -33.2838932049  TIP3      4982            0.0000000000
     37267      5175  TIP3      OH2            28.8366547910       -6.0112600614      -31.2499149730  TIP3      4983            0.0000000000
     37268      5175  TIP3      H1             29.1449496330       -6.2085071809      -32.1431229117  TIP3      4983            0.0000000000
     37269      5175  TIP3      H2             29.6849833690       -5.8737836661      -30.7696238887  TIP3      4983            0.0000000000
     37270      5176  TIP3      OH2            32.2999751724      -11.7594518764      -31.1832323063  TIP3      4984            0.0000000000
     37271      5176  TIP3      H1             32.3007417980      -12.7227143575      -31.0398514676  TIP3      4984            0.0000000000
     37272      5176  TIP3      H2             32.3175759384      -11.7432036551      -32.1510347253  TIP3      4984            0.0000000000
     37273      5177  TIP3      OH2            25.3309082506      -13.8137134260      -34.4748753984  TIP3      4985            0.0000000000
     37274      5177  TIP3      H1             25.4411263505      -13.0259022899      -35.0523297377  TIP3      4985            0.0000000000
     37275      5177  TIP3      H2             24.8087647715      -14.3790203816      -35.0789794685  TIP3      4985            0.0000000000
     37276      5178  TIP3      OH2            32.7983583437      -13.3923759971      -35.5610701502  TIP3      4986            0.0000000000
     37277      5178  TIP3      H1             33.5457191217      -13.7081536762      -34.9996977800  TIP3      4986            0.0000000000
     37278      5178  TIP3      H2             33.2198155698      -12.8539906028      -36.2475504486  TIP3      4986            0.0000000000
     37279      5179  TIP3      OH2            21.7723939737      -11.0328127674      -33.5320531657  TIP3      4987            0.0000000000
     37280      5179  TIP3      H1             22.4369511270      -11.3861553442      -32.9099641699  TIP3      4987            0.0000000000
     37281      5179  TIP3      H2             22.0024718763      -11.5531859883      -34.3299438747  TIP3      4987            0.0000000000
     37282      5180  TIP3      OH2            26.4003868427       -9.7478042969      -34.1337630618  TIP3      4988            0.0000000000
     37283      5180  TIP3      H1             27.2805318662      -10.0884511516      -33.8742213858  TIP3      4988            0.0000000000
     37284      5180  TIP3      H2             26.1544006408      -10.3871132490      -34.8354467586  TIP3      4988            0.0000000000
     37285      5181  TIP3      OH2            24.4552593944      -14.5773833591      -30.3742513066  TIP3      4989            0.0000000000
     37286      5181  TIP3      H1             23.9508982564      -14.1206062009      -31.0705257353  TIP3      4989            0.0000000000
     37287      5181  TIP3      H2             23.8187246154      -14.5888213743      -29.6333595708  TIP3      4989            0.0000000000
     37288      5182  TIP3      OH2            31.1132234400       -5.3573324944      -36.7744061995  TIP3      4990            0.0000000000
     37289      5182  TIP3      H1             30.8897926406       -5.2637165460      -37.7225276708  TIP3      4990            0.0000000000
     37290      5182  TIP3      H2             30.7551465081       -4.5008315911      -36.4504044521  TIP3      4990            0.0000000000
     37291      5183  TIP3      OH2            26.3129973351       -6.9222388299      -30.6473399184  TIP3      4991            0.0000000000
     37292      5183  TIP3      H1             25.7713039779       -6.2090661874      -30.2422402372  TIP3      4991            0.0000000000
     37293      5183  TIP3      H2             27.1217726717       -6.4366564050      -30.9230331460  TIP3      4991            0.0000000000
     37294      5184  TIP3      OH2            34.4482761324      -13.8601739103      -33.4846542524  TIP3      4992            0.0000000000
     37295      5184  TIP3      H1             34.3109477629      -14.7804585879      -33.2098673622  TIP3      4992            0.0000000000
     37296      5184  TIP3      H2             34.8224621246      -13.4573506149      -32.6714736730  TIP3      4992            0.0000000000
     37297      5185  TIP3      OH2            23.8427086481      -12.6642352973      -32.3588967578  TIP3      4993            0.0000000000
     37298      5185  TIP3      H1             24.4429933369      -12.0554742605      -31.8656420430  TIP3      4993            0.0000000000
     37299      5185  TIP3      H2             24.4315215524      -12.9821654489      -33.0782307424  TIP3      4993            0.0000000000
     37300      5186  TIP3      OH2            25.1031985257       -4.8802466787      -29.2932404848  TIP3      4994            0.0000000000
     37301      5186  TIP3      H1             24.7811901040       -4.0557597338      -29.7015611487  TIP3      4994            0.0000000000
     37302      5186  TIP3      H2             24.2894929516       -5.1331771438      -28.7907333553  TIP3      4994            0.0000000000
     37303      5187  TIP3      OH2            21.0470938397       -5.5388528451      -38.5617817917  TIP3      4995            0.0000000000
     37304      5187  TIP3      H1             20.9984366898       -5.0692026071      -39.4264610235  TIP3      4995            0.0000000000
     37305      5187  TIP3      H2             21.0050700478       -4.8042452001      -37.9254984279  TIP3      4995            0.0000000000
     37306      5188  TIP3      OH2            34.6524198132       -4.5329399758      -31.4472820280  TIP3      4996            0.0000000000
     37307      5188  TIP3      H1             33.7715280356       -4.1114215657      -31.2936128443  TIP3      4996            0.0000000000
     37308      5188  TIP3      H2             35.0669494127       -3.9121242804      -32.0669984311  TIP3      4996            0.0000000000
     37309      5189  TIP3      OH2            34.9571249079      -15.0785764068      -30.5679742571  TIP3      4997            0.0000000000
     37310      5189  TIP3      H1             34.0273355005      -14.7786513457      -30.6529503850  TIP3      4997            0.0000000000
     37311      5189  TIP3      H2             35.4449955492      -14.3116323472      -30.9213497253  TIP3      4997            0.0000000000
     37312      5190  TIP3      OH2            27.8711578714      -17.1620217406      -32.9736554674  TIP3      4998            0.0000000000
     37313      5190  TIP3      H1             27.5379356761      -18.0679653695      -33.0442286218  TIP3      4998            0.0000000000
     37314      5190  TIP3      H2             27.0697508032      -16.7409644236      -32.5615465119  TIP3      4998            0.0000000000
     37315      5191  TIP3      OH2            33.2302009035       -2.3263961843      -34.9785801054  TIP3      4999            0.0000000000
     37316      5191  TIP3      H1             33.3146532098       -3.1541069979      -35.5006116612  TIP3      4999            0.0000000000
     37317      5191  TIP3      H2             33.7348456768       -1.7189698688      -35.5522614231  TIP3      4999            0.0000000000
     37318      5192  TIP3      OH2            33.9416563490       -4.3647533399      -36.4892337003  TIP3      5000            0.0000000000
     37319      5192  TIP3      H1             33.7392077990       -4.9595975990      -37.2256541975  TIP3      5000            0.0000000000
     37320      5192  TIP3      H2             34.1443687610       -5.0011052318      -35.7711734220  TIP3      5000            0.0000000000
     37321      5193  TIP3      OH2            35.5390541606       -5.6130574024      -27.6058277602  TIP3      5001            0.0000000000
     37322      5193  TIP3      H1             35.2292115565       -6.1107334537      -28.3946546834  TIP3      5001            0.0000000000
     37323      5193  TIP3      H2             35.4140743435       -4.7005941334      -27.9287375703  TIP3      5001            0.0000000000
     37324      5194  TIP3      OH2            30.1154972824       -8.5136649256      -38.2241753601  TIP3      5002            0.0000000000
     37325      5194  TIP3      H1             29.5786309815       -7.7233966231      -38.4583512152  TIP3      5002            0.0000000000
     37326      5194  TIP3      H2             30.9603909759       -8.3042943603      -38.6590932435  TIP3      5002            0.0000000000
     37327      5195  TIP3      OH2            30.4876311209       -9.6255851584      -40.9032882199  TIP3      5003            0.0000000000
     37328      5195  TIP3      H1             31.2462774292       -9.2974239871      -40.3681737038  TIP3      5003            0.0000000000
     37329      5195  TIP3      H2             30.8793442275      -10.3648634614      -41.3795305170  TIP3      5003            0.0000000000
     37330      5196  TIP3      OH2            34.1211109538       -8.1510644085      -37.1906121112  TIP3      5004            0.0000000000
     37331      5196  TIP3      H1             33.3738250272       -7.9528570232      -36.5759145913  TIP3      5004            0.0000000000
     37332      5196  TIP3      H2             34.5085283556       -8.9289624345      -36.7229444719  TIP3      5004            0.0000000000
     37333      5197  TIP3      OH2            33.3741687950      -10.2230217239      -28.2455084078  TIP3      5005            0.0000000000
     37334      5197  TIP3      H1             33.5065064480       -9.3743251090      -27.7949909263  TIP3      5005            0.0000000000
     37335      5197  TIP3      H2             32.5644894035       -9.9965466333      -28.7495805232  TIP3      5005            0.0000000000
     37336      5198  TIP3      OH2            25.3116530035       -7.6129103229      -35.3714418647  TIP3      5006            0.0000000000
     37337      5198  TIP3      H1             25.1056258124       -8.0441384892      -36.2265982165  TIP3      5006            0.0000000000
     37338      5198  TIP3      H2             25.8202129296       -8.3221796172      -34.9354886065  TIP3      5006            0.0000000000
     37339      5199  TIP3      OH2            26.4873946554       -4.3902212783      -33.0305297163  TIP3      5007            0.0000000000
     37340      5199  TIP3      H1             26.3962647981       -4.3011521135      -34.0016896631  TIP3      5007            0.0000000000
     37341      5199  TIP3      H2             27.3765807209       -4.7562366533      -32.9019708873  TIP3      5007            0.0000000000
     37342      5200  TIP3      OH2            25.5172880489       -9.2134127945      -31.6373331405  TIP3      5008            0.0000000000
     37343      5200  TIP3      H1             25.7649326639       -9.2251239216      -32.5842553899  TIP3      5008            0.0000000000
     37344      5200  TIP3      H2             25.9789467721       -8.4090445523      -31.3103026274  TIP3      5008            0.0000000000
     37345      5201  TIP3      OH2            32.1376480291       -3.5759149692      -30.8256418840  TIP3      5009            0.0000000000
     37346      5201  TIP3      H1             31.9752113914       -2.9344702739      -30.1091722577  TIP3      5009            0.0000000000
     37347      5201  TIP3      H2             31.8263819929       -4.4045061655      -30.4069082474  TIP3      5009            0.0000000000
     37348      5202  TIP3      OH2            27.0305964835       -4.4785991978      -27.4044891322  TIP3      5010            0.0000000000
     37349      5202  TIP3      H1             26.3195838726       -4.0831922858      -26.8559753607  TIP3      5010            0.0000000000
     37350      5202  TIP3      H2             26.4532377302       -4.7845724328      -28.1365697480  TIP3      5010            0.0000000000
     37351      5203  TIP3      OH2            32.6379982507       -8.7414250028      -39.3621625795  TIP3      5011            0.0000000000
     37352      5203  TIP3      H1             33.2614422688       -8.4844663454      -38.6409913936  TIP3      5011            0.0000000000
     37353      5203  TIP3      H2             33.0687197386       -8.3264768864      -40.1484724901  TIP3      5011            0.0000000000
     37354      5204  TIP3      OH2            23.5605297600       -8.5059447461      -27.7270144649  TIP3      5012            0.0000000000
     37355      5204  TIP3      H1             23.7325409644       -7.8112930412      -27.0743950382  TIP3      5012            0.0000000000
     37356      5204  TIP3      H2             22.8131285023       -8.9531800683      -27.3052512731  TIP3      5012            0.0000000000
     37357      5205  TIP3      OH2            30.0440467343       -2.9031665582      -36.2148722534  TIP3      5013            0.0000000000
     37358      5205  TIP3      H1             30.3690544551       -2.2285820946      -35.6067079534  TIP3      5013            0.0000000000
     37359      5205  TIP3      H2             29.4673674908       -2.4186778689      -36.8246212163  TIP3      5013            0.0000000000
     37360      5206  TIP3      OH2            25.0298564525       -2.9951032796      -26.2588527129  TIP3      5014            0.0000000000
     37361      5206  TIP3      H1             24.8566098431       -2.6027643956      -27.1414888143  TIP3      5014            0.0000000000
     37362      5206  TIP3      H2             24.1130671921       -3.1964908254      -25.9913427207  TIP3      5014            0.0000000000
     37363      5207  TIP3      OH2            36.3940330750      -17.6368936623      -39.6264491262  TIP3      5015            0.0000000000
     37364      5207  TIP3      H1             35.6294975076      -17.5989703676      -39.0233920719  TIP3      5015            0.0000000000
     37365      5207  TIP3      H2             35.9816833979      -17.4340994149      -40.4764554289  TIP3      5015            0.0000000000
     37366      5208  TIP3      OH2            24.1486960104       -8.8537352722      -37.6856025596  TIP3      5016            0.0000000000
     37367      5208  TIP3      H1             23.6559378138       -8.0882672375      -38.0368374419  TIP3      5016            0.0000000000
     37368      5208  TIP3      H2             23.5952731188       -9.5985431749      -37.9265599241  TIP3      5016            0.0000000000
     37369      5209  TIP3      OH2            20.7227033701       -6.1160805710      -28.9250221653  TIP3      5017            0.0000000000
     37370      5209  TIP3      H1             20.2797059477       -6.2293025997      -29.7807964172  TIP3      5017            0.0000000000
     37371      5209  TIP3      H2             21.0211476392       -7.0473735245      -28.7802971980  TIP3      5017            0.0000000000
     37372      5210  TIP3      OH2            20.1393604099       -3.4787809467      -31.9707138021  TIP3      5018            0.0000000000
     37373      5210  TIP3      H1             21.0505146659       -3.4621318474      -32.2976593456  TIP3      5018            0.0000000000
     37374      5210  TIP3      H2             20.0649515238       -2.6171163163      -31.5433594785  TIP3      5018            0.0000000000
     37375      5211  TIP3      OH2            29.3725583769       -3.1913419211      -27.8555859993  TIP3      5019            0.0000000000
     37376      5211  TIP3      H1             29.3801851282       -2.2787177619      -27.5350829070  TIP3      5019            0.0000000000
     37377      5211  TIP3      H2             28.4319204008       -3.4726468192      -27.7440955344  TIP3      5019            0.0000000000
     37378      5212  TIP3      OH2            29.9773025700        0.4051048690      -37.9862487129  TIP3      5020            0.0000000000
     37379      5212  TIP3      H1             29.9666114326        0.6108332758      -38.9412573382  TIP3      5020            0.0000000000
     37380      5212  TIP3      H2             29.9760496377        1.3066663768      -37.5929797018  TIP3      5020            0.0000000000
     37381      5213  TIP3      OH2            23.4897131265       -0.7527939991      -35.8866447839  TIP3      5021            0.0000000000
     37382      5213  TIP3      H1             23.6025670299       -1.0816269230      -34.9621084756  TIP3      5021            0.0000000000
     37383      5213  TIP3      H2             22.7356166043       -1.3135655892      -36.1815927321  TIP3      5021            0.0000000000
     37384      5214  TIP3      OH2            33.1337800490       -0.2415627986      -40.6199590511  TIP3      5022            0.0000000000
     37385      5214  TIP3      H1             33.4101281593       -1.0235717385      -41.1351095339  TIP3      5022            0.0000000000
     37386      5214  TIP3      H2             32.9961705624       -0.6325890138      -39.7219507034  TIP3      5022            0.0000000000
     37387      5215  TIP3      OH2            32.3589427973       -0.7312195521      -38.1178463254  TIP3      5023            0.0000000000
     37388      5215  TIP3      H1             31.4308017448       -0.4783664189      -37.8971413995  TIP3      5023            0.0000000000
     37389      5215  TIP3      H2             32.6950965458       -1.0980556063      -37.2873153296  TIP3      5023            0.0000000000
     37390      5216  TIP3      OH2            34.9994985182      -11.0253526655      -25.7803258913  TIP3      5024            0.0000000000
     37391      5216  TIP3      H1             35.0236465741      -11.2680109172      -26.7205785022  TIP3      5024            0.0000000000
     37392      5216  TIP3      H2             35.8149577184      -11.4626089577      -25.4680348113  TIP3      5024            0.0000000000
     37393      5217  TIP3      OH2            22.8783292982       -4.9760441131      -27.8447321128  TIP3      5025            0.0000000000
     37394      5217  TIP3      H1             22.7619538451       -5.2668092801      -26.9269408576  TIP3      5025            0.0000000000
     37395      5217  TIP3      H2             22.0341682098       -5.2891078964      -28.2575044037  TIP3      5025            0.0000000000
     37396      5218  TIP3      OH2            25.5561354326      -16.2987897374      -32.0193330168  TIP3      5026            0.0000000000
     37397      5218  TIP3      H1             24.6505256515      -16.4009050579      -32.3622785267  TIP3      5026            0.0000000000
     37398      5218  TIP3      H2             25.3570492382      -15.7980378925      -31.1959702050  TIP3      5026            0.0000000000
     37399      5219  TIP3      OH2            30.3098620554      -16.8632409909      -28.7182105787  TIP3      5027            0.0000000000
     37400      5219  TIP3      H1             30.6913048813      -17.3687924173      -27.9709797546  TIP3      5027            0.0000000000
     37401      5219  TIP3      H2             29.3378660040      -16.9488847867      -28.5778785520  TIP3      5027            0.0000000000
     37402      5220  TIP3      OH2            33.2331940386      -13.0027353770      -27.6783594220  TIP3      5028            0.0000000000
     37403      5220  TIP3      H1             32.6156115311      -13.1593066984      -26.9288399779  TIP3      5028            0.0000000000
     37404      5220  TIP3      H2             33.2293125703      -12.0323055528      -27.7906851886  TIP3      5028            0.0000000000
     37405      5221  TIP3      OH2            34.0888209066       -7.7546563174      -41.4287618553  TIP3      5029            0.0000000000
     37406      5221  TIP3      H1             34.2369379999       -7.5883594357      -42.3741239871  TIP3      5029            0.0000000000
     37407      5221  TIP3      H2             34.5107969526       -6.9572040793      -41.0559381519  TIP3      5029            0.0000000000
     37408      5222  TIP3      OH2            29.7209655298      -13.7903883869      -40.9937988663  TIP3      5030            0.0000000000
     37409      5222  TIP3      H1             29.2309078382      -13.9230161970      -40.1590613468  TIP3      5030            0.0000000000
     37410      5222  TIP3      H2             29.6302015976      -14.6694068316      -41.3828477472  TIP3      5030            0.0000000000
     37411      5223  TIP3      OH2            25.6184111339      -11.6484501675      -30.5787396800  TIP3      5031            0.0000000000
     37412      5223  TIP3      H1             24.8646508592      -11.5020814746      -29.9663762930  TIP3      5031            0.0000000000
     37413      5223  TIP3      H2             25.7403358498      -10.7350576257      -30.9237326331  TIP3      5031            0.0000000000
     37414      5224  TIP3      OH2            25.4243334522      -11.6630645454      -36.0475339572  TIP3      5032            0.0000000000
     37415      5224  TIP3      H1             24.4597712627      -11.7851465063      -36.1349347572  TIP3      5032            0.0000000000
     37416      5224  TIP3      H2             25.7390667968      -11.7619213536      -36.9762858425  TIP3      5032            0.0000000000
     37417      5225  TIP3      OH2            31.2561927209      -10.4567869244      -36.8522497512  TIP3      5033            0.0000000000
     37418      5225  TIP3      H1             30.7472692295       -9.8292606620      -37.4166457639  TIP3      5033            0.0000000000
     37419      5225  TIP3      H2             31.8402421773      -10.8856137868      -37.5058822740  TIP3      5033            0.0000000000
     37420      5226  TIP3      OH2            30.4326880715      -10.3742888242      -25.7704273220  TIP3      5034            0.0000000000
     37421      5226  TIP3      H1             29.6933626418      -10.9945640350      -25.6290202633  TIP3      5034            0.0000000000
     37422      5226  TIP3      H2             31.0483388773      -10.7019296391      -25.0911291227  TIP3      5034            0.0000000000
     37423      5227  TIP3      OH2            31.8285658874      -11.2432189463      -33.9629049080  TIP3      5035            0.0000000000
     37424      5227  TIP3      H1             31.5518293382      -10.5756275365      -34.6225726880  TIP3      5035            0.0000000000
     37425      5227  TIP3      H2             31.9394892952      -12.0274715859      -34.5414364534  TIP3      5035            0.0000000000
     37426      5228  TIP3      OH2            23.1170185392      -11.4786116920      -29.4073018608  TIP3      5036            0.0000000000
     37427      5228  TIP3      H1             23.3322213978      -11.2424599906      -28.4876824544  TIP3      5036            0.0000000000
     37428      5228  TIP3      H2             22.8623197636      -12.4159395576      -29.3335219969  TIP3      5036            0.0000000000
     37429      5229  TIP3      OH2            26.4415917956      -13.6930029065      -41.6924883793  TIP3      5037            0.0000000000
     37430      5229  TIP3      H1             26.0162107902      -14.1965138290      -40.9638712281  TIP3      5037            0.0000000000
     37431      5229  TIP3      H2             26.3242519990      -12.7626250871      -41.4454644478  TIP3      5037            0.0000000000
     37432      5230  TIP3      OH2            19.9825027056      -14.2241314615      -34.8069411431  TIP3      5038            0.0000000000
     37433      5230  TIP3      H1             20.6590689743      -14.1342928052      -34.1220879482  TIP3      5038            0.0000000000
     37434      5230  TIP3      H2             20.2780501238      -13.6140257674      -35.5006318746  TIP3      5038            0.0000000000
     37435      5231  TIP3      OH2            21.0767086156      -13.5647883466      -39.8247320674  TIP3      5039            0.0000000000
     37436      5231  TIP3      H1             21.8865730213      -13.1516077072      -40.1671548511  TIP3      5039            0.0000000000
     37437      5231  TIP3      H2             20.5465710572      -12.8343590214      -39.4444846730  TIP3      5039            0.0000000000
     37438      5232  TIP3      OH2            31.1843010357       -9.6118082396      -29.7061748859  TIP3      5040            0.0000000000
     37439      5232  TIP3      H1             31.6820546524      -10.3056177465      -30.1971671186  TIP3      5040            0.0000000000
     37440      5232  TIP3      H2             30.5865512399      -10.1568306332      -29.1451568660  TIP3      5040            0.0000000000
     37441      5233  TIP3      OH2            28.4800871114      -13.9839694922      -34.7753795603  TIP3      5041            0.0000000000
     37442      5233  TIP3      H1             27.5859898086      -13.8501208108      -34.4112184604  TIP3      5041            0.0000000000
     37443      5233  TIP3      H2             28.9955912663      -14.2503855088      -33.9936217466  TIP3      5041            0.0000000000
     37444      5234  TIP3      OH2            22.7100382541      -12.5250266289      -35.7428455465  TIP3      5042            0.0000000000
     37445      5234  TIP3      H1             22.0265867564      -12.1207698138      -36.3252550005  TIP3      5042            0.0000000000
     37446      5234  TIP3      H2             22.8387685360      -13.4213379403      -36.1288233214  TIP3      5042            0.0000000000
     37447      5235  TIP3      OH2            26.2792832381      -12.0278783813      -38.5471430335  TIP3      5043            0.0000000000
     37448      5235  TIP3      H1             27.2322001275      -11.8448581098      -38.5220059973  TIP3      5043            0.0000000000
     37449      5235  TIP3      H2             25.9682142183      -11.5547012478      -39.3529369168  TIP3      5043            0.0000000000
     37450      5236  TIP3      OH2            32.2524860321      -14.5026002674      -31.4937416624  TIP3      5044            0.0000000000
     37451      5236  TIP3      H1             31.6369804678      -14.7687213529      -30.7870033198  TIP3      5044            0.0000000000
     37452      5236  TIP3      H2             31.7727640231      -14.8719410152      -32.2615731747  TIP3      5044            0.0000000000
     37453      5237  TIP3      OH2            25.4014598760      -10.9299367658      -40.8670079511  TIP3      5045            0.0000000000
     37454      5237  TIP3      H1             24.8696490206      -11.2338678338      -41.6171036616  TIP3      5045            0.0000000000
     37455      5237  TIP3      H2             26.1927738521      -10.5324695588      -41.3022566443  TIP3      5045            0.0000000000
     37456      5238  TIP3      OH2            35.5391112607        1.3740463695      -25.6254862972  TIP3      5046            0.0000000000
     37457      5238  TIP3      H1             36.1333466464        1.3057923864      -26.3859625723  TIP3      5046            0.0000000000
     37458      5238  TIP3      H2             36.1179104957        1.0421176428      -24.9135499539  TIP3      5046            0.0000000000
     37459      5239  TIP3      OH2            23.2825465153       -6.5093945611      -25.4127106334  TIP3      5047            0.0000000000
     37460      5239  TIP3      H1             23.6487551421       -5.7670820739      -24.9139283013  TIP3      5047            0.0000000000
     37461      5239  TIP3      H2             22.4121387931       -6.6259374742      -24.9568945080  TIP3      5047            0.0000000000
     37462      5240  TIP3      OH2            28.9380295718      -11.0360513627      -33.2442944793  TIP3      5048            0.0000000000
     37463      5240  TIP3      H1             29.8490295366      -11.2897838889      -33.4789099142  TIP3      5048            0.0000000000
     37464      5240  TIP3      H2             28.6513754521      -11.7815178638      -32.6835140949  TIP3      5048            0.0000000000
     37465      5241  TIP3      OH2            23.8103795451      -15.0697285180      -36.3531688677  TIP3      5049            0.0000000000
     37466      5241  TIP3      H1             23.2271125060      -15.6834232749      -35.8724659322  TIP3      5049            0.0000000000
     37467      5241  TIP3      H2             24.1261616788      -15.6285730445      -37.0799326163  TIP3      5049            0.0000000000
     37468      5242  TIP3      OH2            28.1197398003      -12.9022440804      -30.8323576262  TIP3      5050            0.0000000000
     37469      5242  TIP3      H1             27.2339755619      -12.4914264625      -30.8627281172  TIP3      5050            0.0000000000
     37470      5242  TIP3      H2             28.5434673370      -12.3793128778      -30.1339314175  TIP3      5050            0.0000000000
     37471      5243  TIP3      OH2            28.5188826819       -6.3993000452      -38.5294728702  TIP3      5051            0.0000000000
     37472      5243  TIP3      H1             27.7907928310       -6.9113738787      -38.9389138873  TIP3      5051            0.0000000000
     37473      5243  TIP3      H2             28.0904659486       -6.1377019868      -37.6789252073  TIP3      5051            0.0000000000
     37474      5244  TIP3      OH2            35.3189802854       -6.8026734887      -30.1146129776  TIP3      5052            0.0000000000
     37475      5244  TIP3      H1             35.2433906304       -5.9230169401      -30.5506041367  TIP3      5052            0.0000000000
     37476      5244  TIP3      H2             34.7089273658       -7.3009551249      -30.7047401898  TIP3      5052            0.0000000000
     37477      5245  TIP3      OH2            32.3651739899      -13.5052840450      -40.5964010404  TIP3      5053            0.0000000000
     37478      5245  TIP3      H1             31.3848036321      -13.5194565102      -40.6488271224  TIP3      5053            0.0000000000
     37479      5245  TIP3      H2             32.5236589191      -12.6380782393      -40.1810275752  TIP3      5053            0.0000000000
     37480      5246  TIP3      OH2            30.3668642338       -5.9663466886      -26.9302253931  TIP3      5054            0.0000000000
     37481      5246  TIP3      H1             29.8274388242       -6.4871531419      -27.5377270384  TIP3      5054            0.0000000000
     37482      5246  TIP3      H2             29.8961086833       -5.1159316067      -26.9696466768  TIP3      5054            0.0000000000
     37483      5247  TIP3      OH2            33.0442444876      -11.4914657496      -38.8056088466  TIP3      5055            0.0000000000
     37484      5247  TIP3      H1             33.8495081565      -11.8614943618      -38.3773798521  TIP3      5055            0.0000000000
     37485      5247  TIP3      H2             33.3672150578      -10.6284206036      -39.0996706828  TIP3      5055            0.0000000000
     37486      5248  TIP3      OH2            23.6037297575       -7.0069910370      -33.3611323788  TIP3      5056            0.0000000000
     37487      5248  TIP3      H1             24.2484375955       -7.1301655220      -34.0946942596  TIP3      5056            0.0000000000
     37488      5248  TIP3      H2             23.8593489078       -7.7102543155      -32.7417627193  TIP3      5056            0.0000000000
     37489      5249  TIP3      OH2            30.4885514806       -5.0272673216      -39.5897211488  TIP3      5057            0.0000000000
     37490      5249  TIP3      H1             30.0343899960       -4.1884836911      -39.3787951877  TIP3      5057            0.0000000000
     37491      5249  TIP3      H2             29.8269454621       -5.6919642274      -39.2899148546  TIP3      5057            0.0000000000
     37492      5250  TIP3      OH2            20.6568535336       -8.6515698066      -28.0704745077  TIP3      5058            0.0000000000
     37493      5250  TIP3      H1             20.6437217402       -8.9844066415      -27.1465600469  TIP3      5058            0.0000000000
     37494      5250  TIP3      H2             20.0314076014       -9.2449642941      -28.5210157941  TIP3      5058            0.0000000000
     37495      5251  TIP3      OH2            32.6929391503       -3.6226496393      -27.3258570153  TIP3      5059            0.0000000000
     37496      5251  TIP3      H1             31.8564581712       -3.5161954561      -27.8017279927  TIP3      5059            0.0000000000
     37497      5251  TIP3      H2             32.4045965702       -3.3190036878      -26.4462668434  TIP3      5059            0.0000000000
     37498      5252  TIP3      OH2            35.8915702152       -2.4829532525      -39.1956273616  TIP3      5060            0.0000000000
     37499      5252  TIP3      H1             35.5304062276       -3.2031505436      -38.6577948932  TIP3      5060            0.0000000000
     37500      5252  TIP3      H2             36.2278729621       -2.9579965403      -39.9712127643  TIP3      5060            0.0000000000
     37501      5253  TIP3      OH2            33.3684664545       -8.1503048702      -31.7428795582  TIP3      5061            0.0000000000
     37502      5253  TIP3      H1             32.4422151704       -8.2466502730      -32.0318508870  TIP3      5061            0.0000000000
     37503      5253  TIP3      H2             33.7715357691       -8.9386143501      -32.1737405350  TIP3      5061            0.0000000000
     37504      5254  TIP3      OH2            25.7848045135       -3.4740421060      -35.5785364201  TIP3      5062            0.0000000000
     37505      5254  TIP3      H1             26.0805637420       -2.5781908649      -35.8383924012  TIP3      5062            0.0000000000
     37506      5254  TIP3      H2             24.9193045961       -3.4683383042      -36.0179705259  TIP3      5062            0.0000000000
     37507      5255  TIP3      OH2            21.5992169172       -8.8504822449      -41.2729088738  TIP3      5063            0.0000000000
     37508      5255  TIP3      H1             22.1560537168       -8.3681625413      -40.6283847199  TIP3      5063            0.0000000000
     37509      5255  TIP3      H2             20.6859869640       -8.6344439541      -40.9852096397  TIP3      5063            0.0000000000
     37510      5256  TIP3      OH2            27.1799207384       -5.7642234166      -36.2573377123  TIP3      5064            0.0000000000
     37511      5256  TIP3      H1             26.7105352837       -4.9252307802      -36.0638673375  TIP3      5064            0.0000000000
     37512      5256  TIP3      H2             26.6691188513       -6.4029768689      -35.7311839048  TIP3      5064            0.0000000000
     37513      5257  TIP3      OH2            27.8587575886       -1.6606037176      -29.6452596115  TIP3      5065            0.0000000000
     37514      5257  TIP3      H1             28.4952482163       -0.9871124054      -29.9709780591  TIP3      5065            0.0000000000
     37515      5257  TIP3      H2             28.4738288469       -2.2492838331      -29.1764225890  TIP3      5065            0.0000000000
     37516      5258  TIP3      OH2            26.0118192669       -1.0268900536      -36.6872767736  TIP3      5066            0.0000000000
     37517      5258  TIP3      H1             25.0530963992       -0.9117965483      -36.4729626166  TIP3      5066            0.0000000000
     37518      5258  TIP3      H2             26.3512011723       -0.2048727511      -36.2835451820  TIP3      5066            0.0000000000
     37519      5259  TIP3      OH2            31.2867281201       -6.0168734627      -29.8948191555  TIP3      5067            0.0000000000
     37520      5259  TIP3      H1             31.4742088780       -6.1506711914      -28.9489975791  TIP3      5067            0.0000000000
     37521      5259  TIP3      H2             31.6239121241       -6.8660344933      -30.2402695453  TIP3      5067            0.0000000000
     37522      5260  TIP3      OH2            33.8220555816       -4.4749337429      -40.5564030101  TIP3      5068            0.0000000000
     37523      5260  TIP3      H1             33.9115643527       -4.9184033548      -39.6848474728  TIP3      5068            0.0000000000
     37524      5260  TIP3      H2             32.9531460583       -4.7917509401      -40.8344988660  TIP3      5068            0.0000000000
     37525      5261  TIP3      OH2            34.6580522939       -1.4132049413      -27.8810889600  TIP3      5069            0.0000000000
     37526      5261  TIP3      H1             33.9288850497       -2.0661883537      -27.7801749339  TIP3      5069            0.0000000000
     37527      5261  TIP3      H2             34.3206770934       -0.7961818458      -28.5539097010  TIP3      5069            0.0000000000
     37528      5262  TIP3      OH2            22.7295633019      -14.0745834395      -28.2588040437  TIP3      5070            0.0000000000
     37529      5262  TIP3      H1             22.0256542458      -13.5590835792      -27.8276711829  TIP3      5070            0.0000000000
     37530      5262  TIP3      H2             22.6563746681      -14.8909974352      -27.7420248552  TIP3      5070            0.0000000000
     37531      5263  TIP3      OH2            34.8929390910       -6.0435972455      -38.6840379727  TIP3      5071            0.0000000000
     37532      5263  TIP3      H1             34.7773272014       -6.8567777367      -38.1357303038  TIP3      5071            0.0000000000
     37533      5263  TIP3      H2             35.8343282456       -5.8311725179      -38.4919965793  TIP3      5071            0.0000000000
     37534      5264  TIP3      OH2            21.9420022299       -2.2932782817      -29.9287025481  TIP3      5072            0.0000000000
     37535      5264  TIP3      H1             22.5541521979       -3.0304176814      -29.7893995426  TIP3      5072            0.0000000000
     37536      5264  TIP3      H2             22.1075320385       -1.7379286146      -29.1597318649  TIP3      5072            0.0000000000
     37537      5265  TIP3      OH2            26.6432471473       -4.0143775468      -40.0560500410  TIP3      5073            0.0000000000
     37538      5265  TIP3      H1             27.3411442444       -4.3722483614      -39.4805612378  TIP3      5073            0.0000000000
     37539      5265  TIP3      H2             26.6467491250       -3.0607818714      -39.8062265456  TIP3      5073            0.0000000000
     37540      5266  TIP3      OH2            23.0616652599       -6.9497772557      -39.6282199506  TIP3      5074            0.0000000000
     37541      5266  TIP3      H1             22.4279111893       -6.4842212781      -39.0349504423  TIP3      5074            0.0000000000
     37542      5266  TIP3      H2             23.6182905505       -6.2055311711      -39.9369224595  TIP3      5074            0.0000000000
     37543      5267  TIP3      OH2            30.8499986387      -14.0321642984      -28.9058396066  TIP3      5075            0.0000000000
     37544      5267  TIP3      H1             31.7631823763      -13.7712582416      -28.6824220375  TIP3      5075            0.0000000000
     37545      5267  TIP3      H2             30.7937189517      -14.9741136622      -28.6367429605  TIP3      5075            0.0000000000
     37546      5268  TIP3      OH2            31.6680968796      -14.5980218369      -37.7620520261  TIP3      5076            0.0000000000
     37547      5268  TIP3      H1             32.0745777225      -13.9552797235      -38.3603026751  TIP3      5076            0.0000000000
     37548      5268  TIP3      H2             32.3606362174      -14.6805271186      -37.0780770639  TIP3      5076            0.0000000000
     37549      5269  TIP3      OH2            29.2917284558       -2.5996274877      -39.0927820423  TIP3      5077            0.0000000000
     37550      5269  TIP3      H1             28.5668496851       -1.9561539478      -39.0006703736  TIP3      5077            0.0000000000
     37551      5269  TIP3      H2             29.8755027120       -2.1425019771      -39.7309899495  TIP3      5077            0.0000000000
     37552      5270  TIP3      OH2            29.0946509250      -12.7861724701      -37.3345403823  TIP3      5078            0.0000000000
     37553      5270  TIP3      H1             29.6511817682      -11.9898521151      -37.2674603327  TIP3      5078            0.0000000000
     37554      5270  TIP3      H2             28.8976403066      -13.0348169816      -36.4108397518  TIP3      5078            0.0000000000
     37555      5271  TIP3      OH2            29.7849814069      -11.6174031843      -28.3968010324  TIP3      5079            0.0000000000
     37556      5271  TIP3      H1             30.1675501407      -11.5272889318      -27.5069163098  TIP3      5079            0.0000000000
     37557      5271  TIP3      H2             30.0634013393      -12.5194132635      -28.6662264570  TIP3      5079            0.0000000000
     37558      5272  TIP3      OH2            29.6389284630      -15.9219182806      -36.6233156809  TIP3      5080            0.0000000000
     37559      5272  TIP3      H1             29.3252303815      -15.3484693640      -35.8967403859  TIP3      5080            0.0000000000
     37560      5272  TIP3      H2             30.3742152732      -15.3590782014      -36.9872031782  TIP3      5080            0.0000000000
     37561      5273  TIP3      OH2            26.7685041779       -1.4069963390      -39.3400448580  TIP3      5081            0.0000000000
     37562      5273  TIP3      H1             27.0723357159       -0.5823527367      -39.7686924381  TIP3      5081            0.0000000000
     37563      5273  TIP3      H2             26.3463679720       -1.0763846581      -38.5188693158  TIP3      5081            0.0000000000
     37564      5274  TIP3      OH2            25.3271710720      -14.7303515213      -39.3365736136  TIP3      5082            0.0000000000
     37565      5274  TIP3      H1             25.3955192993      -13.9239901474      -38.7830014475  TIP3      5082            0.0000000000
     37566      5274  TIP3      H2             26.1420479936      -15.1936931343      -39.0747162968  TIP3      5082            0.0000000000
     37567      5275  TIP3      OH2            35.6513808004      -14.5816889197      -27.3225560601  TIP3      5083            0.0000000000
     37568      5275  TIP3      H1             34.7666494242      -14.1743249047      -27.2267417985  TIP3      5083            0.0000000000
     37569      5275  TIP3      H2             35.8900831673      -14.2712429193      -28.2075559982  TIP3      5083            0.0000000000
     37570      5276  TIP3      OH2            34.3651866425      -10.3042149111      -33.0758388161  TIP3      5084            0.0000000000
     37571      5276  TIP3      H1             33.4753165879      -10.4044556830      -33.4506944690  TIP3      5084            0.0000000000
     37572      5276  TIP3      H2             34.5504729936      -11.2133406733      -32.8065971602  TIP3      5084            0.0000000000
     37573      5277  TIP3      OH2            23.7893449317       -4.2742645072      -40.9503993462  TIP3      5085            0.0000000000
     37574      5277  TIP3      H1             24.5722640496       -3.9021119564      -40.5101368721  TIP3      5085            0.0000000000
     37575      5277  TIP3      H2             24.2284257380       -4.8234596025      -41.6237522225  TIP3      5085            0.0000000000
     37576      5278  TIP3      OH2            22.3562550167      -11.6139194112      -41.3486605441  TIP3      5086            0.0000000000
     37577      5278  TIP3      H1             22.3000396891      -10.8641892132      -40.7258701796  TIP3      5086            0.0000000000
     37578      5278  TIP3      H2             21.4805274435      -12.0190085300      -41.3408766503  TIP3      5086            0.0000000000
     37579      5279  TIP3      OH2            35.8595269647       -0.8127327541      -31.3751622342  TIP3      5087            0.0000000000
     37580      5279  TIP3      H1             35.5880363887       -0.1556874745      -32.0584675797  TIP3      5087            0.0000000000
     37581      5279  TIP3      H2             36.6631205217       -1.1381381007      -31.8043303637  TIP3      5087            0.0000000000
     37582      5280  TIP3      OH2            22.9489521849      -16.7275496267      -32.6222200693  TIP3      5088            0.0000000000
     37583      5280  TIP3      H1             22.8059104057      -16.9533493020      -33.5712426294  TIP3      5088            0.0000000000
     37584      5280  TIP3      H2             22.6324468938      -17.5706238149      -32.2163484196  TIP3      5088            0.0000000000
     37585      5281  TIP3      OH2            21.8044209258       -2.7699417146      -36.7397533695  TIP3      5089            0.0000000000
     37586      5281  TIP3      H1             20.9597645508       -2.8918185388      -36.2806153261  TIP3      5089            0.0000000000
     37587      5281  TIP3      H2             21.5065873707       -2.3475064083      -37.5762453692  TIP3      5089            0.0000000000
     37588      5282  TIP3      OH2            20.7142264542       -0.0358944980      -25.4952329607  TIP3      5090            0.0000000000
     37589      5282  TIP3      H1             21.6119109539       -0.1896001183      -25.1637812599  TIP3      5090            0.0000000000
     37590      5282  TIP3      H2             20.3456997096       -0.9364316506      -25.4933193728  TIP3      5090            0.0000000000
     37591      5283  TIP3      OH2            25.5934272515       -1.1172763661      -24.1484287186  TIP3      5091            0.0000000000
     37592      5283  TIP3      H1             26.4218210912       -1.4170207000      -23.7305169496  TIP3      5091            0.0000000000
     37593      5283  TIP3      H2             25.4734653844       -1.7134929221      -24.8980642826  TIP3      5091            0.0000000000
     37594      5284  TIP3      OH2            30.5534081915       -1.4836874827      -41.3221224953  TIP3      5092            0.0000000000
     37595      5284  TIP3      H1             29.9339332376       -2.0707398519      -41.8046779175  TIP3      5092            0.0000000000
     37596      5284  TIP3      H2             31.1078799335       -1.1753699347      -42.0627732455  TIP3      5092            0.0000000000
     37597      5285  TIP3      OH2            31.8491284679       -2.5635242520      -24.9458526569  TIP3      5093            0.0000000000
     37598      5285  TIP3      H1             31.5852369730       -3.3961131907      -24.5023617232  TIP3      5093            0.0000000000
     37599      5285  TIP3      H2             32.6798671287       -2.3848831244      -24.4511424486  TIP3      5093            0.0000000000
     37600      5286  TIP3      OH2            34.4674367931       -2.1047581075      -42.1841383280  TIP3      5094            0.0000000000
     37601      5286  TIP3      H1             34.3960117768       -2.6183808581      -41.3513701283  TIP3      5094            0.0000000000
     37602      5286  TIP3      H2             35.3674171524       -1.7534455756      -42.1268378632  TIP3      5094            0.0000000000
     37603      5287  TIP3      OH2            20.6439076997       -6.4512463462      -24.5825392513  TIP3      5095            0.0000000000
     37604      5287  TIP3      H1             19.9942623618       -7.0755238100      -24.2248402524  TIP3      5095            0.0000000000
     37605      5287  TIP3      H2             20.1721162082       -6.0951021361      -25.3650313634  TIP3      5095            0.0000000000
     37606      5288  TIP3      OH2            25.4888074991       -6.4700090364      -42.1267511718  TIP3      5096            0.0000000000
     37607      5288  TIP3      H1             26.1676894038       -6.3187465408      -41.4544866370  TIP3      5096            0.0000000000
     37608      5288  TIP3      H2             26.0502481938       -6.7566402449      -42.8836044603  TIP3      5096            0.0000000000
     37609      5289  TIP3      OH2            32.9785340901       -6.6792152683      -27.5395964812  TIP3      5097            0.0000000000
     37610      5289  TIP3      H1             33.6941931500       -6.1109249639      -27.2045545435  TIP3      5097            0.0000000000
     37611      5289  TIP3      H2             32.2080101197       -6.1684250981      -27.2248505459  TIP3      5097            0.0000000000
     37612      5290  TIP3      OH2            21.5245690537       -9.1104456823      -25.5388212130  TIP3      5098            0.0000000000
     37613      5290  TIP3      H1             21.3105305243       -9.9673567997      -25.1435934817  TIP3      5098            0.0000000000
     37614      5290  TIP3      H2             21.8947426484       -8.6504302471      -24.7660008707  TIP3      5098            0.0000000000
     37615      5291  TIP3      OH2            26.7472274708       -7.9718062301      -39.9277002835  TIP3      5099            0.0000000000
     37616      5291  TIP3      H1             25.9383726710       -8.4093545176      -39.6294561765  TIP3      5099            0.0000000000
     37617      5291  TIP3      H2             27.1177636060       -8.6489918405      -40.5336239025  TIP3      5099            0.0000000000
     37618      5292  TIP3      OH2            25.4929470006      -10.3800374208      -27.9515246833  TIP3      5100            0.0000000000
     37619      5292  TIP3      H1             24.9093300143       -9.6204953696      -27.7623552260  TIP3      5100            0.0000000000
     37620      5292  TIP3      H2             26.2827130225       -9.9189411545      -28.3033596271  TIP3      5100            0.0000000000
     37621      5293  TIP3      OH2            27.8016114407       -9.8165185781      -41.7374051981  TIP3      5101            0.0000000000
     37622      5293  TIP3      H1             27.9191256151       -9.7065753193      -42.6909937793  TIP3      5101            0.0000000000
     37623      5293  TIP3      H2             28.7312087841       -9.7276774962      -41.3918573967  TIP3      5101            0.0000000000
     37624      5294  TIP3      OH2            30.3706803776       -7.6723180033      -23.9504317990  TIP3      5102            0.0000000000
     37625      5294  TIP3      H1             30.6291521208       -7.4569693833      -24.8603362496  TIP3      5102            0.0000000000
     37626      5294  TIP3      H2             30.2390978380       -8.6247190312      -24.0772112604  TIP3      5102            0.0000000000
     37627      5295  TIP3      OH2            25.9666122824      -12.9537676392      -26.7601304599  TIP3      5103            0.0000000000
     37628      5295  TIP3      H1             26.3377591238      -13.5627371553      -27.4297985900  TIP3      5103            0.0000000000
     37629      5295  TIP3      H2             25.8167016312      -12.1465977799      -27.2900272850  TIP3      5103            0.0000000000
     37630      5296  TIP3      OH2            26.8145435493      -14.4164026704      -28.8956526482  TIP3      5104            0.0000000000
     37631      5296  TIP3      H1             27.3328577037      -14.0537907739      -29.6425571928  TIP3      5104            0.0000000000
     37632      5296  TIP3      H2             25.8950109066      -14.2718395561      -29.2066935956  TIP3      5104            0.0000000000
     37633      5297  TIP3      OH2            27.6338166757       -8.6050056142      -28.9139462530  TIP3      5105            0.0000000000
     37634      5297  TIP3      H1             28.4681276650       -8.2439991196      -29.2435936579  TIP3      5105            0.0000000000
     37635      5297  TIP3      H2             26.9739776915       -8.0432497059      -29.3639374673  TIP3      5105            0.0000000000
     37636      5298  TIP3      OH2            32.3140414673      -11.5034041029      -24.0826884512  TIP3      5106            0.0000000000
     37637      5298  TIP3      H1             32.0293294764      -12.3337726781      -24.5293509457  TIP3      5106            0.0000000000
     37638      5298  TIP3      H2             33.1514130111      -11.3891720624      -24.5812457626  TIP3      5106            0.0000000000
     37639      5299  TIP3      OH2            24.6409326909      -11.2725473777      -24.4536442636  TIP3      5107            0.0000000000
     37640      5299  TIP3      H1             23.8600652558      -11.8116030028      -24.6513746775  TIP3      5107            0.0000000000
     37641      5299  TIP3      H2             25.3492086373      -11.8003188856      -24.8521306297  TIP3      5107            0.0000000000
     37642      5300  TIP3      OH2            27.6212287835      -17.1841746440      -28.8926408434  TIP3      5108            0.0000000000
     37643      5300  TIP3      H1             27.3125629987      -16.2577996767      -28.9472117896  TIP3      5108            0.0000000000
     37644      5300  TIP3      H2             26.8583219090      -17.6652408404      -29.2657825244  TIP3      5108            0.0000000000
     37645      5301  TIP3      OH2            28.6310127001      -12.8838889988      -24.8474839862  TIP3      5109            0.0000000000
     37646      5301  TIP3      H1             28.3057142962      -13.3456779637      -24.0507163633  TIP3      5109            0.0000000000
     37647      5301  TIP3      H2             28.0466160133      -13.2830386934      -25.5110698035  TIP3      5109            0.0000000000
     37648      5302  TIP3      OH2            31.6165186492      -13.6663152637      -25.6016503809  TIP3      5110            0.0000000000
     37649      5302  TIP3      H1             30.6513913313      -13.7822468440      -25.6477856902  TIP3      5110            0.0000000000
     37650      5302  TIP3      H2             31.8282248934      -14.3520084355      -24.9198494032  TIP3      5110            0.0000000000
     37651      5303  TIP3      OH2            32.2846129598      -15.3095285680      -23.5619577787  TIP3      5111            0.0000000000
     37652      5303  TIP3      H1             32.0749540372      -16.2378781478      -23.8091710950  TIP3      5111            0.0000000000
     37653      5303  TIP3      H2             33.1005745783      -15.4543666597      -23.0714613239  TIP3      5111            0.0000000000
     37654      5304  TIP3      OH2            22.6798404258      -13.7094226053      -24.8816227714  TIP3      5112            0.0000000000
     37655      5304  TIP3      H1             22.6845635305      -14.5982926769      -25.2744452350  TIP3      5112            0.0000000000
     37656      5304  TIP3      H2             23.1203859074      -13.8440016009      -24.0226728085  TIP3      5112            0.0000000000
     37657      5305  TIP3      OH2            27.3623582973      -17.5664794364      -26.1876539723  TIP3      5113            0.0000000000
     37658      5305  TIP3      H1             28.3095913702      -17.7823482200      -26.0947851458  TIP3      5113            0.0000000000
     37659      5305  TIP3      H2             27.3223848177      -17.4477806717      -27.1639651629  TIP3      5113            0.0000000000
     37660      5306  TIP3      OH2            27.9120745901      -15.5576720913      -24.5182307372  TIP3      5114            0.0000000000
     37661      5306  TIP3      H1             27.4819252169      -16.2477087449      -25.0513084123  TIP3      5114            0.0000000000
     37662      5306  TIP3      H2             27.2479537131      -15.2640934261      -23.8525856461  TIP3      5114            0.0000000000
     37663      5307  TIP3      OH2            27.2603542136        0.9886273299      -40.7656864581  TIP3      5115            0.0000000000
     37664      5307  TIP3      H1             28.1176269536        1.4404451035      -40.7913542837  TIP3      5115            0.0000000000
     37665      5307  TIP3      H2             26.6846614647        1.5952501472      -41.2390470374  TIP3      5115            0.0000000000
     37666      5308  TIP3      OH2            20.8986246297       -4.6436100521      -41.1629298690  TIP3      5116            0.0000000000
     37667      5308  TIP3      H1             21.8714747792       -4.5345009894      -41.1484346965  TIP3      5116            0.0000000000
     37668      5308  TIP3      H2             20.7896874706       -4.9996935999      -42.0576173324  TIP3      5116            0.0000000000
     37669      5309  TIP3      OH2            19.7083146257        0.6174540804      -36.1176304457  TIP3      5117            0.0000000000
     37670      5309  TIP3      H1             19.0777637769        0.0804718718      -36.6489121826  TIP3      5117            0.0000000000
     37671      5309  TIP3      H2             19.9595394818       -0.0689885348      -35.4644680448  TIP3      5117            0.0000000000
     37672      5310  TIP3      OH2            20.3338533735       -1.2854966860      -34.3712164495  TIP3      5118            0.0000000000
     37673      5310  TIP3      H1             19.6834799147       -1.9447327647      -34.7264472414  TIP3      5118            0.0000000000
     37674      5310  TIP3      H2             20.0908696688       -1.3483558092      -33.4355012933  TIP3      5118            0.0000000000
     37675      5311  TIP3      OH2            35.8155379871       -5.2299000003      -23.3608133744  TIP3      5119            0.0000000000
     37676      5311  TIP3      H1             34.9317422986       -5.2947061089      -22.9508868216  TIP3      5119            0.0000000000
     37677      5311  TIP3      H2             36.2874029265       -4.6198995948      -22.7501399535  TIP3      5119            0.0000000000
     37678      5312  TIP3      OH2            35.9922389011       -3.3976015408      -29.2117364979  TIP3      5120            0.0000000000
     37679      5312  TIP3      H1             35.5825303557       -2.5496966732      -28.9217853709  TIP3      5120            0.0000000000
     37680      5312  TIP3      H2             35.7094644680       -3.4281078862      -30.1514310875  TIP3      5120            0.0000000000
     37681      5313  TIP3      OH2            36.5016155265      -11.9103058175      -41.4181649667  TIP3      5121            0.0000000000
     37682      5313  TIP3      H1             36.4184656860      -11.3288676620      -42.1816304016  TIP3      5121            0.0000000000
     37683      5313  TIP3      H2             36.0223090622      -12.6900456339      -41.7712978401  TIP3      5121            0.0000000000
     37684      5314  TIP3      OH2            35.1927831150      -10.1620364959      -35.7826016324  TIP3      5122            0.0000000000
     37685      5314  TIP3      H1             35.2765425859      -11.0412340509      -35.4022973248  TIP3      5122            0.0000000000
     37686      5314  TIP3      H2             35.3380255286       -9.6002426475      -34.9980570001  TIP3      5122            0.0000000000
     37687      5315  TIP3      OH2            20.4892335335       -7.8088979990      -31.7872295020  TIP3      5123            0.0000000000
     37688      5315  TIP3      H1             20.5056034008       -8.1448546748      -32.7104388493  TIP3      5123            0.0000000000
     37689      5315  TIP3      H2             21.3832467929       -8.1071911681      -31.4765965240  TIP3      5123            0.0000000000
     37690      5316  TIP3      OH2            36.1410787053       -8.1014389165      -25.7271845833  TIP3      5124            0.0000000000
     37691      5316  TIP3      H1             36.0986658635       -8.9429945460      -26.2080843193  TIP3      5124            0.0000000000
     37692      5316  TIP3      H2             36.4240668178       -7.4691221424      -26.4032991619  TIP3      5124            0.0000000000
     37693      5317  TIP3      OH2            34.8049120131      -13.7967589572      -42.5139373562  TIP3      5125            0.0000000000
     37694      5317  TIP3      H1             35.3777003310      -14.5243535667      -42.2595456851  TIP3      5125            0.0000000000
     37695      5317  TIP3      H2             33.9723669504      -14.0279191550      -42.0610956524  TIP3      5125            0.0000000000
     37696      5318  TIP3      OH2            35.0663331385      -12.9388523978      -37.6285777599  TIP3      5126            0.0000000000
     37697      5318  TIP3      H1             35.2863398539      -13.6630968757      -36.9981803056  TIP3      5126            0.0000000000
     37698      5318  TIP3      H2             35.9497694537      -12.6033909945      -37.8464496301  TIP3      5126            0.0000000000
     37699      5319  TIP3      OH2            35.8970835410      -12.6147155603      -31.5246071743  TIP3      5127            0.0000000000
     37700      5319  TIP3      H1             36.5058484771      -12.7972891902      -32.2581067565  TIP3      5127            0.0000000000
     37701      5319  TIP3      H2             36.2038880854      -11.7314463726      -31.2223415507  TIP3      5127            0.0000000000
     37702      5320  TIP3      OH2            36.0810686180      -10.9115166584      -28.5676571809  TIP3      5128            0.0000000000
     37703      5320  TIP3      H1             35.1011818511      -10.9184929071      -28.5849934828  TIP3      5128            0.0000000000
     37704      5320  TIP3      H2             36.2527586409      -10.6299286389      -29.4830820413  TIP3      5128            0.0000000000
     37705      5321  TIP3      OH2            20.0833405846      -12.9919889026      -25.6815210760  TIP3      5129            0.0000000000
     37706      5321  TIP3      H1             20.9583099939      -12.9697939405      -25.2252528757  TIP3      5129            0.0000000000
     37707      5321  TIP3      H2             19.6434023092      -13.7021609741      -25.1852100348  TIP3      5129            0.0000000000
     37708      5322  TIP3      OH2            35.1516128842      -15.5211255782      -36.7174970809  TIP3      5130            0.0000000000
     37709      5322  TIP3      H1             36.1052569743      -15.7233043742      -36.7738438344  TIP3      5130            0.0000000000
     37710      5322  TIP3      H2             34.7615929738      -16.2446551255      -37.2571792545  TIP3      5130            0.0000000000
     37711      5323  TIP3      OH2            21.6783021829      -14.4099681479      -32.1853927634  TIP3      5131            0.0000000000
     37712      5323  TIP3      H1             22.1119583094      -15.2835709609      -32.3411492903  TIP3      5131            0.0000000000
     37713      5323  TIP3      H2             22.4013413602      -13.7752359638      -32.3427139413  TIP3      5131            0.0000000000
     37714      5324  TIP3      OH2            20.0194992070      -11.4632668142      -31.5691377365  TIP3      5132            0.0000000000
     37715      5324  TIP3      H1             20.5366201299      -11.7455382499      -32.3426044859  TIP3      5132            0.0000000000
     37716      5324  TIP3      H2             20.4627955187      -10.6249544454      -31.3877496017  TIP3      5132            0.0000000000
     37717      5325  TIP3      OH2            20.2649279261      -15.0564057342      -37.7258112168  TIP3      5133            0.0000000000
     37718      5325  TIP3      H1             19.3418317813      -14.9319122021      -37.4822782068  TIP3      5133            0.0000000000
     37719      5325  TIP3      H2             20.2828039209      -14.7736774103      -38.6594803181  TIP3      5133            0.0000000000
     37720      5326  TIP3      OH2            34.5158556946       -0.4497688582      -36.2144410458  TIP3      5134            0.0000000000
     37721      5326  TIP3      H1             35.3531882433       -0.9059821892      -36.3669185283  TIP3      5134            0.0000000000
     37722      5326  TIP3      H2             34.6311690762        0.0000247519      -35.3562709931  TIP3      5134            0.0000000000
     37723      5327  TIP3      OH2            19.9603879270      -16.4807636528      -29.5064875307  TIP3      5135            0.0000000000
     37724      5327  TIP3      H1             19.3266952730      -16.8118911346      -28.8451956982  TIP3      5135            0.0000000000
     37725      5327  TIP3      H2             19.4421247249      -15.8231211392      -30.0150232380  TIP3      5135            0.0000000000
     37726      5328  TIP3      OH2            22.0311607496       -3.2932128965      -25.0995273330  TIP3      5136            0.0000000000
     37727      5328  TIP3      H1             21.2473376830       -2.9463013510      -25.5608711191  TIP3      5136            0.0000000000
     37728      5328  TIP3      H2             21.7373702694       -3.3207451065      -24.1677785906  TIP3      5136            0.0000000000
     37729      5329  TIP3      OH2            25.0681426327       -1.9564165037      -28.8903289557  TIP3      5137            0.0000000000
     37730      5329  TIP3      H1             25.1030996825       -1.0052010635      -29.1493157619  TIP3      5137            0.0000000000
     37731      5329  TIP3      H2             26.0000827397       -2.1639690759      -29.0559945009  TIP3      5137            0.0000000000
     37732      5330  TIP3      OH2            29.8167128025       -0.2781186750      -26.3639113639  TIP3      5138            0.0000000000
     37733      5330  TIP3      H1             29.8544110826       -1.0984483720      -25.8508796598  TIP3      5138            0.0000000000
     37734      5330  TIP3      H2             30.7639575933       -0.1236469157      -26.5575311944  TIP3      5138            0.0000000000
     37735      5331  TIP3      OH2            32.3514849258        0.8168342966      -26.6525578013  TIP3      5139            0.0000000000
     37736      5331  TIP3      H1             33.0679812948        0.2636718933      -26.9889109022  TIP3      5139            0.0000000000
     37737      5331  TIP3      H2             32.7923316674        1.3277989980      -25.9702003022  TIP3      5139            0.0000000000
     37738      5332  TIP3      OH2            22.6481855033        1.1275612859      -29.0087522936  TIP3      5140            0.0000000000
     37739      5332  TIP3      H1             21.9907536422        1.8185091015      -29.2300501345  TIP3      5140            0.0000000000
     37740      5332  TIP3      H2             22.7641138283        1.3571538765      -28.0626201721  TIP3      5140            0.0000000000
     37741      5333  TIP3      OH2            25.1472176984        0.5633127848      -29.9187430941  TIP3      5141            0.0000000000
     37742      5333  TIP3      H1             24.2364207317        0.7635851459      -29.5918408758  TIP3      5141            0.0000000000
     37743      5333  TIP3      H2             25.1824791534        1.1149457242      -30.7247498293  TIP3      5141            0.0000000000
     37744      5334  TIP3      OH2            29.9341737192       -0.1702759160      -30.7300394457  TIP3      5142            0.0000000000
     37745      5334  TIP3      H1             29.5043978534        0.1529312485      -31.5410100018  TIP3      5142            0.0000000000
     37746      5334  TIP3      H2             29.9099490108        0.6386672762      -30.1785222833  TIP3      5142            0.0000000000
     37747      5335  TIP3      OH2            32.0571492282       -1.2164881037      -29.3245738459  TIP3      5143            0.0000000000
     37748      5335  TIP3      H1             31.2411767798       -1.0559366418      -29.8532861475  TIP3      5143            0.0000000000
     37749      5335  TIP3      H2             32.6184507798       -0.5437379342      -29.7414296339  TIP3      5143            0.0000000000
     37750      5336  TIP3      OH2            34.5378799165        0.8026251694      -29.7689491727  TIP3      5144            0.0000000000
     37751      5336  TIP3      H1             35.3523527509        1.3327608349      -29.6877997262  TIP3      5144            0.0000000000
     37752      5336  TIP3      H2             34.7862201850        0.2429569400      -30.5433308988  TIP3      5144            0.0000000000
     37753      5337  TIP3      OH2            22.1757843022       -0.3725664837      -31.9325789810  TIP3      5145            0.0000000000
     37754      5337  TIP3      H1             21.9967170690       -1.0107792297      -31.2095705200  TIP3      5145            0.0000000000
     37755      5337  TIP3      H2             22.9776114846       -0.7530210172      -32.3431898708  TIP3      5145            0.0000000000
     37756      5338  TIP3      OH2            24.2698593039       -1.4939829000      -33.2957693496  TIP3      5146            0.0000000000
     37757      5338  TIP3      H1             24.1092442106       -2.4379272909      -33.1121830454  TIP3      5146            0.0000000000
     37758      5338  TIP3      H2             25.1249783068       -1.3892657975      -32.8189692734  TIP3      5146            0.0000000000
     37759      5339  TIP3      OH2            26.5117569428       -1.6942185183      -31.9057397418  TIP3      5147            0.0000000000
     37760      5339  TIP3      H1             26.6893082500       -2.6127340690      -32.1714611152  TIP3      5147            0.0000000000
     37761      5339  TIP3      H2             26.9177280296       -1.6531618213      -31.0098567704  TIP3      5147            0.0000000000
     37762      5340  TIP3      OH2            30.2789321805      -15.9063458270      -33.2536094258  TIP3      5148            0.0000000000
     37763      5340  TIP3      H1             29.3958360066      -16.3342528815      -33.2961947152  TIP3      5148            0.0000000000
     37764      5340  TIP3      H2             30.8285077462      -16.5240602495      -33.7465221568  TIP3      5148            0.0000000000
     37765      5341  TIP3      OH2            35.6425412268      -17.7745698161      -33.4145919772  TIP3      5149            0.0000000000
     37766      5341  TIP3      H1             36.0941417108      -16.9462353592      -33.6115589926  TIP3      5149            0.0000000000
     37767      5341  TIP3      H2             34.7126630269      -17.4586342777      -33.4881347594  TIP3      5149            0.0000000000
     37768      5342  TIP3      OH2            22.4399889880      -17.3456920554      -35.3018210303  TIP3      5150            0.0000000000
     37769      5342  TIP3      H1             21.6397277087      -17.5163983268      -35.8493877496  TIP3      5150            0.0000000000
     37770      5342  TIP3      H2             22.9676437132      -18.1606745339      -35.4593247195  TIP3      5150            0.0000000000
     37771      5343  TIP3      OH2            21.2211134432      -17.3065413119      -39.8283193219  TIP3      5151            0.0000000000
     37772      5343  TIP3      H1             21.7999495746      -16.7186947732      -40.3723993822  TIP3      5151            0.0000000000
     37773      5343  TIP3      H2             20.8847988757      -16.7091208371      -39.1373195884  TIP3      5151            0.0000000000
     37774      5344  TIP3      OH2            26.4852565365      -17.2019529603      -35.6474575073  TIP3      5152            0.0000000000
     37775      5344  TIP3      H1             27.3966557874      -17.1918766774      -35.9674361646  TIP3      5152            0.0000000000
     37776      5344  TIP3      H2             26.4609289465      -16.4174951633      -35.0851871324  TIP3      5152            0.0000000000
     37777      5345  TIP3      OH2            33.2770563354      -17.0619867163      -34.2466996408  TIP3      5153            0.0000000000
     37778      5345  TIP3      H1             33.0084817590      -16.7235095813      -35.1119503970  TIP3      5153            0.0000000000
     37779      5345  TIP3      H2             32.6087538683      -17.7747060137      -34.0744293278  TIP3      5153            0.0000000000
     37780      5346  TIP3      OH2            33.7931513393      -17.3142332149      -38.3461680304  TIP3      5154            0.0000000000
     37781      5346  TIP3      H1             32.9966307268      -16.9752156348      -38.7947747863  TIP3      5154            0.0000000000
     37782      5346  TIP3      H2             33.5889557660      -18.2702366893      -38.2659391247  TIP3      5154            0.0000000000
     37783      5347  TIP3      OH2            21.1219335835       -1.2190740178      -38.8469360585  TIP3      5155            0.0000000000
     37784      5347  TIP3      H1             20.2679536787       -1.2682436150      -39.3185096724  TIP3      5155            0.0000000000
     37785      5347  TIP3      H2             21.3653915962       -0.3061581417      -39.0479770771  TIP3      5155            0.0000000000
     37786      5348  TIP3      OH2            22.9976723541      -15.9308911314      -41.2747348341  TIP3      5156            0.0000000000
     37787      5348  TIP3      H1             23.8012384409      -16.4793778374      -41.3258652197  TIP3      5156            0.0000000000
     37788      5348  TIP3      H2             23.2993009411      -15.2070273242      -40.7105631112  TIP3      5156            0.0000000000
     37789      5349  TIP3      OH2            28.3206181659      -14.8940438425      -38.8102967954  TIP3      5157            0.0000000000
     37790      5349  TIP3      H1             28.7791934477      -15.4666288342      -38.1685651198  TIP3      5157            0.0000000000
     37791      5349  TIP3      H2             28.4630854737      -14.0367641871      -38.3426404811  TIP3      5157            0.0000000000
     37792      5350  TIP3      OH2            30.5929721139        1.0546140593      -40.5710863558  TIP3      5158            0.0000000000
     37793      5350  TIP3      H1             31.5638155489        1.0970521344      -40.4555940071  TIP3      5158            0.0000000000
     37794      5350  TIP3      H2             30.5179014378        0.1103315988      -40.8563054009  TIP3      5158            0.0000000000
     37795      5351  TIP3      OH2            22.2855689216      -16.4623438952      -26.4253782471  TIP3      5159            0.0000000000
     37796      5351  TIP3      H1             21.6469419157      -17.1728110149      -26.2295023850  TIP3      5159            0.0000000000
     37797      5351  TIP3      H2             22.9794967999      -16.6505135546      -25.7445419224  TIP3      5159            0.0000000000
     37798      5352  TIP3      OH2            24.2084249703      -17.0026539283      -24.5639993037  TIP3      5160            0.0000000000
     37799      5352  TIP3      H1             25.1264966648      -17.2506519056      -24.7374192446  TIP3      5160            0.0000000000
     37800      5352  TIP3      H2             24.0131544645      -17.5593506792      -23.7803399650  TIP3      5160            0.0000000000
     37801      5353  TIP3      OH2            23.3010337468       -0.0428544546      -41.8964557808  TIP3      5161            0.0000000000
     37802      5353  TIP3      H1             22.6635798714        0.2494155334      -41.2317245573  TIP3      5161            0.0000000000
     37803      5353  TIP3      H2             23.7178345311       -0.8144282049      -41.5028055720  TIP3      5161            0.0000000000
     37804      5354  TIP3      OH2            33.0082639234      -17.8070779987      -24.0893591256  TIP3      5162            0.0000000000
     37805      5354  TIP3      H1             33.3150901243      -17.9143254234      -23.1527956983  TIP3      5162            0.0000000000
     37806      5354  TIP3      H2             33.8700561246      -17.9371145953      -24.5376394763  TIP3      5162            0.0000000000
     37807      5355  TIP3      OH2            35.6450779311       -1.4637259179      -25.4387300107  TIP3      5163            0.0000000000
     37808      5355  TIP3      H1             35.4981171868       -1.9429835633      -26.2825293784  TIP3      5163            0.0000000000
     37809      5355  TIP3      H2             35.6098067438       -0.5638728404      -25.8020366185  TIP3      5163            0.0000000000
     37810      5356  TIP3      OH2           -24.5015438341       11.2951372488      -35.6682590324  TIP3      5164            0.0000000000
     37811      5356  TIP3      H1            -24.5184387020       12.2777730049      -35.6304843797  TIP3      5164            0.0000000000
     37812      5356  TIP3      H2            -25.2894036277       11.1726048553      -36.2263166202  TIP3      5164            0.0000000000
     37813      5357  TIP3      OH2           -25.9146434397        9.8320620666      -32.3612528857  TIP3      5165            0.0000000000
     37814      5357  TIP3      H1            -26.0494441168        9.3894598217      -31.4965688682  TIP3      5165            0.0000000000
     37815      5357  TIP3      H2            -26.6008201063        9.4421099447      -32.9237837122  TIP3      5165            0.0000000000
     37816      5358  TIP3      OH2           -33.6443595322       10.2686797872      -31.1790599839  TIP3      5166            0.0000000000
     37817      5358  TIP3      H1            -33.4521585921        9.4609110567      -30.6918145733  TIP3      5166            0.0000000000
     37818      5358  TIP3      H2            -32.8841317954       10.8236695538      -30.9450561161  TIP3      5166            0.0000000000
     37819      5359  TIP3      OH2           -22.6711799174       13.1439925029      -33.7293313078  TIP3      5167            0.0000000000
     37820      5359  TIP3      H1            -22.9533915129       12.4714272778      -33.0892753552  TIP3      5167            0.0000000000
     37821      5359  TIP3      H2            -22.3530845722       13.8288723304      -33.1184740203  TIP3      5167            0.0000000000
     37822      5360  TIP3      OH2           -32.9024508587       14.4604708791      -32.4368778878  TIP3      5168            0.0000000000
     37823      5360  TIP3      H1            -33.0853948216       13.5468239118      -32.7399382008  TIP3      5168            0.0000000000
     37824      5360  TIP3      H2            -31.9295710023       14.4248890492      -32.4359519118  TIP3      5168            0.0000000000
     37825      5361  TIP3      OH2           -35.7364412635        7.8946239837      -36.9278874221  TIP3      5169            0.0000000000
     37826      5361  TIP3      H1            -36.4905308432        8.4738447626      -36.7082053692  TIP3      5169            0.0000000000
     37827      5361  TIP3      H2            -36.2472684906        7.0679969143      -36.9049436996  TIP3      5169            0.0000000000
     37828      5362  TIP3      OH2           -35.9044292136       10.1233356392      -34.2683974325  TIP3      5170            0.0000000000
     37829      5362  TIP3      H1            -35.7925104212        9.1539515151      -34.2191291324  TIP3      5170            0.0000000000
     37830      5362  TIP3      H2            -35.3336729912       10.3768559449      -34.9991887407  TIP3      5170            0.0000000000
     37831      5363  TIP3      OH2           -25.0957045334       18.6284630259      -33.8440031986  TIP3      5171            0.0000000000
     37832      5363  TIP3      H1            -24.4718072234       18.0701195811      -34.3717924814  TIP3      5171            0.0000000000
     37833      5363  TIP3      H2            -25.4557367089       17.9391508033      -33.2724802714  TIP3      5171            0.0000000000
     37834      5364  TIP3      OH2           -27.6815283702       12.5274692767      -31.2936675861  TIP3      5172            0.0000000000
     37835      5364  TIP3      H1            -27.2839234153       12.3920216150      -32.1621540336  TIP3      5172            0.0000000000
     37836      5364  TIP3      H2            -26.8854554724       12.7483118747      -30.7639408869  TIP3      5172            0.0000000000
     37837      5365  TIP3      OH2           -19.1360267762        4.1205207885      -31.1727654013  TIP3      5173            0.0000000000
     37838      5365  TIP3      H1            -19.0973950575        4.6724000194      -30.3645779269  TIP3      5173            0.0000000000
     37839      5365  TIP3      H2            -18.3069433294        4.3712182873      -31.6024018320  TIP3      5173            0.0000000000
     37840      5366  TIP3      OH2           -24.0491933918        7.3028813307      -31.1087314625  TIP3      5174            0.0000000000
     37841      5366  TIP3      H1            -23.9045765336        6.4015894737      -30.7720556880  TIP3      5174            0.0000000000
     37842      5366  TIP3      H2            -24.2618993504        7.1237984325      -32.0448353019  TIP3      5174            0.0000000000
     37843      5367  TIP3      OH2           -30.9870057637        4.8831135980      -34.5512326514  TIP3      5175            0.0000000000
     37844      5367  TIP3      H1            -30.9781061777        5.7481597385      -35.0043810071  TIP3      5175            0.0000000000
     37845      5367  TIP3      H2            -31.4994974411        4.3472417752      -35.1955882442  TIP3      5175            0.0000000000
     37846      5368  TIP3      OH2           -23.7275904200        5.3033787934      -35.8435897568  TIP3      5176            0.0000000000
     37847      5368  TIP3      H1            -23.1335743999        4.9890430054      -35.1230174712  TIP3      5176            0.0000000000
     37848      5368  TIP3      H2            -23.1781295883        5.9943720053      -36.2427591757  TIP3      5176            0.0000000000
     37849      5369  TIP3      OH2           -35.1592951033        7.5565868992      -33.8731441716  TIP3      5177            0.0000000000
     37850      5369  TIP3      H1            -34.6485735659        6.9206207758      -33.3455159695  TIP3      5177            0.0000000000
     37851      5369  TIP3      H2            -34.7558224607        7.4032319678      -34.7517019569  TIP3      5177            0.0000000000
     37852      5370  TIP3      OH2           -29.8882695438        9.1018108343      -33.9979003973  TIP3      5178            0.0000000000
     37853      5370  TIP3      H1            -29.0227990827        8.7304653604      -33.7259273895  TIP3      5178            0.0000000000
     37854      5370  TIP3      H2            -30.1589883905        8.3952383253      -34.6232501625  TIP3      5178            0.0000000000
     37855      5371  TIP3      OH2           -18.8941370768        5.5963242237      -28.8207412066  TIP3      5179            0.0000000000
     37856      5371  TIP3      H1            -19.2729055097        6.4054690688      -29.2447269727  TIP3      5179            0.0000000000
     37857      5371  TIP3      H2            -18.5640098653        6.0068886727      -28.0075536505  TIP3      5179            0.0000000000
     37858      5372  TIP3      OH2           -32.4755146920        4.3678973149      -30.3432002425  TIP3      5180            0.0000000000
     37859      5372  TIP3      H1            -32.6750696008        4.9073933933      -31.1413100936  TIP3      5180            0.0000000000
     37860      5372  TIP3      H2            -33.1935960038        4.6867021275      -29.7649766626  TIP3      5180            0.0000000000
     37861      5373  TIP3      OH2           -25.4184594161       13.5254118015      -36.7892263102  TIP3      5181            0.0000000000
     37862      5373  TIP3      H1            -25.6829300902       13.5533811300      -37.7202064651  TIP3      5181            0.0000000000
     37863      5373  TIP3      H2            -25.7278379759       14.4091132664      -36.4842206480  TIP3      5181            0.0000000000
     37864      5374  TIP3      OH2           -30.0613585074       11.7432302542      -30.4419219553  TIP3      5182            0.0000000000
     37865      5374  TIP3      H1            -30.6085789413       12.4603570128      -30.0664703385  TIP3      5182            0.0000000000
     37866      5374  TIP3      H2            -29.2903776895       12.2572688182      -30.7731649210  TIP3      5182            0.0000000000
     37867      5375  TIP3      OH2           -21.7009928027        4.6327416371      -34.0135106273  TIP3      5183            0.0000000000
     37868      5375  TIP3      H1            -21.7722113979        4.0531554190      -33.2439530559  TIP3      5183            0.0000000000
     37869      5375  TIP3      H2            -20.9486810257        5.1862606500      -33.7491960548  TIP3      5183            0.0000000000
     37870      5376  TIP3      OH2           -32.9097309184        6.0730647074      -32.3499437080  TIP3      5184            0.0000000000
     37871      5376  TIP3      H1            -32.3998944536        6.8340772190      -31.9950189537  TIP3      5184            0.0000000000
     37872      5376  TIP3      H2            -32.3408997639        5.7736408929      -33.0886499406  TIP3      5184            0.0000000000
     37873      5377  TIP3      OH2           -31.3304357963       13.8979901916      -29.5803495477  TIP3      5185            0.0000000000
     37874      5377  TIP3      H1            -31.4949029801       14.8274092522      -29.8114612559  TIP3      5185            0.0000000000
     37875      5377  TIP3      H2            -32.1620186561       13.7246234644      -29.0805040409  TIP3      5185            0.0000000000
     37876      5378  TIP3      OH2           -35.6738001446       13.5353623872      -38.5517159186  TIP3      5186            0.0000000000
     37877      5378  TIP3      H1            -35.6435140753       14.0089487581      -39.4133523633  TIP3      5186            0.0000000000
     37878      5378  TIP3      H2            -35.2814103648       14.1305774323      -37.8941789447  TIP3      5186            0.0000000000
     37879      5379  TIP3      OH2           -21.8623829065       15.1337747504      -31.8268395657  TIP3      5187            0.0000000000
     37880      5379  TIP3      H1            -22.7940756339       15.3587624813      -31.5986505582  TIP3      5187            0.0000000000
     37881      5379  TIP3      H2            -21.5783541494       15.9925170563      -32.1910807521  TIP3      5187            0.0000000000
     37882      5380  TIP3      OH2           -21.7565663491        3.4003115192      -30.4738033301  TIP3      5188            0.0000000000
     37883      5380  TIP3      H1            -22.5514583997        3.5506590372      -31.0245034466  TIP3      5188            0.0000000000
     37884      5380  TIP3      H2            -21.0673964592        3.8176736512      -31.0244691493  TIP3      5188            0.0000000000
     37885      5381  TIP3      OH2           -29.0288640182        1.5210650827      -32.8867600758  TIP3      5189            0.0000000000
     37886      5381  TIP3      H1            -29.4894159680        0.6738121564      -32.8216573654  TIP3      5189            0.0000000000
     37887      5381  TIP3      H2            -29.7880954120        2.1080994340      -32.6217441223  TIP3      5189            0.0000000000
     37888      5382  TIP3      OH2           -23.5524844123       17.0802711390      -35.3645923021  TIP3      5190            0.0000000000
     37889      5382  TIP3      H1            -23.2696068622       16.2155143564      -35.7236041491  TIP3      5190            0.0000000000
     37890      5382  TIP3      H2            -22.7373938218       17.6342377823      -35.4880152068  TIP3      5190            0.0000000000
     37891      5383  TIP3      OH2           -22.6226486186       14.7240580744      -36.6618765249  TIP3      5191            0.0000000000
     37892      5383  TIP3      H1            -22.6306753055       13.9780038297      -37.2923311431  TIP3      5191            0.0000000000
     37893      5383  TIP3      H2            -22.6762432329       14.2491114858      -35.8191673420  TIP3      5191            0.0000000000
     37894      5384  TIP3      OH2           -20.7602600383       13.5502041532      -27.9228262449  TIP3      5192            0.0000000000
     37895      5384  TIP3      H1            -20.6077490937       12.8140095576      -28.5609129385  TIP3      5192            0.0000000000
     37896      5384  TIP3      H2            -20.6043686242       14.3042947153      -28.5252751969  TIP3      5192            0.0000000000
     37897      5385  TIP3      OH2           -26.2764178320       10.2559665359      -38.3348289754  TIP3      5193            0.0000000000
     37898      5385  TIP3      H1            -26.9024631204       11.0142089923      -38.3751965684  TIP3      5193            0.0000000000
     37899      5385  TIP3      H2            -25.4459094917       10.6515529635      -38.6899486970  TIP3      5193            0.0000000000
     37900      5386  TIP3      OH2           -26.4769167442        9.5897146912      -41.0210202880  TIP3      5194            0.0000000000
     37901      5386  TIP3      H1            -26.2265915475        9.6272818646      -40.0697489042  TIP3      5194            0.0000000000
     37902      5386  TIP3      H2            -25.9820638528        8.8072679814      -41.3165564942  TIP3      5194            0.0000000000
     37903      5387  TIP3      OH2           -18.8020589540        9.9852052985      -29.9373610989  TIP3      5195            0.0000000000
     37904      5387  TIP3      H1            -19.5517649202       10.5916654683      -30.1075199751  TIP3      5195            0.0000000000
     37905      5387  TIP3      H2            -18.1700080856       10.3391215516      -30.6046752677  TIP3      5195            0.0000000000
     37906      5388  TIP3      OH2           -22.3447474306       10.2360609933      -37.1658436744  TIP3      5196            0.0000000000
     37907      5388  TIP3      H1            -23.0417095239       10.6295435512      -36.5904619419  TIP3      5196            0.0000000000
     37908      5388  TIP3      H2            -21.7159076344        9.9069811231      -36.4889036477  TIP3      5196            0.0000000000
     37909      5389  TIP3      OH2           -22.5008968358        8.6917468590      -28.0023937082  TIP3      5197            0.0000000000
     37910      5389  TIP3      H1            -22.8561953097        9.4725293261      -27.5418021362  TIP3      5197            0.0000000000
     37911      5389  TIP3      H2            -23.0423465587        8.7064530053      -28.8038487301  TIP3      5197            0.0000000000
     37912      5390  TIP3      OH2           -31.2358706966       10.9163161674      -35.4731346394  TIP3      5198            0.0000000000
     37913      5390  TIP3      H1            -31.3672119491       10.4301703282      -36.3081007639  TIP3      5198            0.0000000000
     37914      5390  TIP3      H2            -30.6892679659       10.2816614865      -34.9573584944  TIP3      5198            0.0000000000
     37915      5391  TIP3      OH2           -29.8032385423       14.5291048898      -32.8381208156  TIP3      5199            0.0000000000
     37916      5391  TIP3      H1            -29.7643262192       14.4397489692      -33.8069033729  TIP3      5199            0.0000000000
     37917      5391  TIP3      H2            -29.0497690458       14.0067069647      -32.5126426064  TIP3      5199            0.0000000000
     37918      5392  TIP3      OH2           -30.8915046414        9.6150505418      -31.6249180991  TIP3      5200            0.0000000000
     37919      5392  TIP3      H1            -30.5101768329        9.6070766431      -32.5348755854  TIP3      5200            0.0000000000
     37920      5392  TIP3      H2            -30.4118783227       10.3870841810      -31.2082788926  TIP3      5200            0.0000000000
     37921      5393  TIP3      OH2           -24.3728592334       15.5959722592      -31.1249546804  TIP3      5201            0.0000000000
     37922      5393  TIP3      H1            -24.8831767868       16.1988485791      -30.5627928871  TIP3      5201            0.0000000000
     37923      5393  TIP3      H2            -24.5288343457       14.7398373126      -30.6818056512  TIP3      5201            0.0000000000
     37924      5394  TIP3      OH2           -29.9087562980       13.9917213458      -27.2515607818  TIP3      5202            0.0000000000
     37925      5394  TIP3      H1            -30.5990395237       14.5435921629      -26.8034425177  TIP3      5202            0.0000000000
     37926      5394  TIP3      H2            -30.3448312122       13.8147127945      -28.1153912856  TIP3      5202            0.0000000000
     37927      5395  TIP3      OH2           -23.8512857892       10.1537696606      -39.3672586447  TIP3      5203            0.0000000000
     37928      5395  TIP3      H1            -23.2898957983       10.0650864431      -38.5584947636  TIP3      5203            0.0000000000
     37929      5395  TIP3      H2            -23.2173043731       10.5337138593      -40.0146346363  TIP3      5203            0.0000000000
     37930      5396  TIP3      OH2           -32.6993952704       10.1281286731      -27.9226206382  TIP3      5204            0.0000000000
     37931      5396  TIP3      H1            -32.6828983474       10.9250229804      -27.3654092387  TIP3      5204            0.0000000000
     37932      5396  TIP3      H2            -33.6539355218       10.0781124681      -28.1303235304  TIP3      5204            0.0000000000
     37933      5397  TIP3      OH2           -26.3570637655       15.9197752796      -36.0073791298  TIP3      5205            0.0000000000
     37934      5397  TIP3      H1            -26.0693765462       16.5505179128      -35.3433647495  TIP3      5205            0.0000000000
     37935      5397  TIP3      H2            -26.7666662999       16.4707378805      -36.6893912881  TIP3      5205            0.0000000000
     37936      5398  TIP3      OH2           -31.6380576277       15.8240807782      -26.3545951678  TIP3      5206            0.0000000000
     37937      5398  TIP3      H1            -31.9661029331       16.2818846313      -27.1547399919  TIP3      5206            0.0000000000
     37938      5398  TIP3      H2            -32.4837454216       15.5814881499      -25.9233068169  TIP3      5206            0.0000000000
     37939      5399  TIP3      OH2           -19.8557693088        1.2775799539      -39.1689442012  TIP3      5207            0.0000000000
     37940      5399  TIP3      H1            -20.8222324327        1.4484108506      -39.1205361757  TIP3      5207            0.0000000000
     37941      5399  TIP3      H2            -19.5659744062        2.0766266391      -39.6423278051  TIP3      5207            0.0000000000
     37942      5400  TIP3      OH2           -32.1940098551        9.9261116109      -38.0650919992  TIP3      5208            0.0000000000
     37943      5400  TIP3      H1            -32.7354145856       10.6934707845      -38.3650056207  TIP3      5208            0.0000000000
     37944      5400  TIP3      H2            -32.8850567879        9.2543510134      -37.9774552060  TIP3      5208            0.0000000000
     37945      5401  TIP3      OH2           -18.9743646465       15.6468043230      -41.0798833786  TIP3      5209            0.0000000000
     37946      5401  TIP3      H1            -18.6450274683       16.5665740158      -41.1481909174  TIP3      5209            0.0000000000
     37947      5401  TIP3      H2            -18.1367327101       15.1393742738      -41.0820331425  TIP3      5209            0.0000000000
     37948      5402  TIP3      OH2           -35.3889201938       12.8603018044      -29.3878107883  TIP3      5210            0.0000000000
     37949      5402  TIP3      H1            -36.2436165161       13.1446674036      -29.7443598220  TIP3      5210            0.0000000000
     37950      5402  TIP3      H2            -35.5241151980       11.9257200890      -29.2143082756  TIP3      5210            0.0000000000
     37951      5403  TIP3      OH2           -35.6545746624       15.6733200836      -32.7850238665  TIP3      5211            0.0000000000
     37952      5403  TIP3      H1            -34.8318947062       15.1470753987      -32.7636463786  TIP3      5211            0.0000000000
     37953      5403  TIP3      H2            -35.8788935660       15.6814673774      -31.8462533617  TIP3      5211            0.0000000000
     37954      5404  TIP3      OH2           -18.0794228742       15.9356605173      -26.4994451548  TIP3      5212            0.0000000000
     37955      5404  TIP3      H1            -18.2875112885       14.9914044880      -26.4702856064  TIP3      5212            0.0000000000
     37956      5404  TIP3      H2            -18.8842030260       16.2855487422      -26.0457669389  TIP3      5212            0.0000000000
     37957      5405  TIP3      OH2           -27.2656637490       15.3033647252      -27.6218601968  TIP3      5213            0.0000000000
     37958      5405  TIP3      H1            -27.1924386427       16.1772318638      -27.1849142436  TIP3      5213            0.0000000000
     37959      5405  TIP3      H2            -28.2181299418       15.0906815329      -27.5491123948  TIP3      5213            0.0000000000
     37960      5406  TIP3      OH2           -26.6819695973       19.2183369802      -38.2616105911  TIP3      5214            0.0000000000
     37961      5406  TIP3      H1            -26.7102934976       19.5306618504      -39.1944992434  TIP3      5214            0.0000000000
     37962      5406  TIP3      H2            -26.6475411736       20.0732796819      -37.7839721867  TIP3      5214            0.0000000000
     37963      5407  TIP3      OH2           -32.7774439512       18.1228090539      -35.9171666289  TIP3      5215            0.0000000000
     37964      5407  TIP3      H1            -32.5341608629       17.9017549615      -34.9898703177  TIP3      5215            0.0000000000
     37965      5407  TIP3      H2            -33.4460270795       17.4234110198      -36.0988200396  TIP3      5215            0.0000000000
     37966      5408  TIP3      OH2           -23.4772642446       18.4752048817      -41.1571055307  TIP3      5216            0.0000000000
     37967      5408  TIP3      H1            -22.8220742461       17.7541211756      -41.0657555388  TIP3      5216            0.0000000000
     37968      5408  TIP3      H2            -23.7488407373       18.5688721160      -40.2261015381  TIP3      5216            0.0000000000
     37969      5409  TIP3      OH2           -23.9450110825       18.5092717123      -37.9413080698  TIP3      5217            0.0000000000
     37970      5409  TIP3      H1            -24.8915341491       18.7416786972      -37.8600389634  TIP3      5217            0.0000000000
     37971      5409  TIP3      H2            -23.9039340040       17.6641722021      -37.4604374126  TIP3      5217            0.0000000000
     37972      5410  TIP3      OH2           -21.1127386700        7.4776605040      -26.0258755775  TIP3      5218            0.0000000000
     37973      5410  TIP3      H1            -21.7953343207        7.8321593936      -26.6340248480  TIP3      5218            0.0000000000
     37974      5410  TIP3      H2            -21.1812922215        6.5157246192      -26.1603590600  TIP3      5218            0.0000000000
     37975      5411  TIP3      OH2           -33.4771030318       14.1199007697      -28.0073210448  TIP3      5219            0.0000000000
     37976      5411  TIP3      H1            -33.5940092290       13.8994598044      -27.0635562986  TIP3      5219            0.0000000000
     37977      5411  TIP3      H2            -34.3267520904       13.7756084536      -28.3747271912  TIP3      5219            0.0000000000
     37978      5412  TIP3      OH2           -31.1456249571        2.6931961886      -31.9807733844  TIP3      5220            0.0000000000
     37979      5412  TIP3      H1            -32.0198132592        2.6841373722      -32.4120303965  TIP3      5220            0.0000000000
     37980      5412  TIP3      H2            -31.3342999591        3.2085070912      -31.1811170281  TIP3      5220            0.0000000000
     37981      5413  TIP3      OH2           -26.3409621508        2.0956731889      -28.7416270309  TIP3      5221            0.0000000000
     37982      5413  TIP3      H1            -25.9403342510        1.6384270059      -27.9672616826  TIP3      5221            0.0000000000
     37983      5413  TIP3      H2            -27.3139965012        1.9665885191      -28.6246178521  TIP3      5221            0.0000000000
     37984      5414  TIP3      OH2           -23.4646056326        5.9811298366      -27.4558106654  TIP3      5222            0.0000000000
     37985      5414  TIP3      H1            -23.8650063242        5.4819381370      -26.6933894816  TIP3      5222            0.0000000000
     37986      5414  TIP3      H2            -23.8589167211        6.8492860959      -27.3096258417  TIP3      5222            0.0000000000
     37987      5415  TIP3      OH2           -22.2235640217       10.9692820338      -41.2775849811  TIP3      5223            0.0000000000
     37988      5415  TIP3      H1            -22.5215700101       11.0830519875      -42.1973524236  TIP3      5223            0.0000000000
     37989      5415  TIP3      H2            -21.4445333668       11.5565347051      -41.2446950860  TIP3      5223            0.0000000000
     37990      5416  TIP3      OH2           -26.6711738568        5.0928605669      -41.2644013490  TIP3      5224            0.0000000000
     37991      5416  TIP3      H1            -27.0340228741        5.3176415717      -40.3949820892  TIP3      5224            0.0000000000
     37992      5416  TIP3      H2            -27.0964690596        4.2382499986      -41.4301641870  TIP3      5224            0.0000000000
     37993      5417  TIP3      OH2           -31.0131276710        7.2106744710      -30.5932796806  TIP3      5225            0.0000000000
     37994      5417  TIP3      H1            -31.9052503355        7.3070203742      -30.2255928209  TIP3      5225            0.0000000000
     37995      5417  TIP3      H2            -30.8337573763        8.1391168675      -30.8842894042  TIP3      5225            0.0000000000
     37996      5418  TIP3      OH2           -30.8600363585        7.2696567827      -35.8046997491  TIP3      5226            0.0000000000
     37997      5418  TIP3      H1            -31.8445802432        7.2610629848      -35.8339419150  TIP3      5226            0.0000000000
     37998      5418  TIP3      H2            -30.6727746277        7.0185350049      -36.7361935213  TIP3      5226            0.0000000000
     37999      5419  TIP3      OH2           -25.3524944767        8.1585044356      -37.0022579423  TIP3      5227            0.0000000000
     38000      5419  TIP3      H1            -25.7390157973        8.9373887925      -37.4726157471  TIP3      5227            0.0000000000
     38001      5419  TIP3      H2            -24.7282538640        7.8519883469      -37.6846911468  TIP3      5227            0.0000000000
     38002      5420  TIP3      OH2           -26.4488065608        8.2332670559      -25.6859873450  TIP3      5228            0.0000000000
     38003      5420  TIP3      H1            -27.0505211314        7.5104403280      -25.3849350463  TIP3      5228            0.0000000000
     38004      5420  TIP3      H2            -25.9906622454        8.4677099565      -24.8580672538  TIP3      5228            0.0000000000
     38005      5421  TIP3      OH2           -24.5223621440        7.7053500388      -33.9630538645  TIP3      5229            0.0000000000
     38006      5421  TIP3      H1            -24.6930484259        8.5805948979      -34.3652389571  TIP3      5229            0.0000000000
     38007      5421  TIP3      H2            -24.6144696845        7.1475988540      -34.7474177373  TIP3      5229            0.0000000000
     38008      5422  TIP3      OH2           -33.8080705360        7.2871284828      -29.7999000437  TIP3      5230            0.0000000000
     38009      5422  TIP3      H1            -34.6432520684        7.7989681507      -29.8883813579  TIP3      5230            0.0000000000
     38010      5422  TIP3      H2            -34.1411008611        6.4661407999      -29.3622679375  TIP3      5230            0.0000000000
     38011      5423  TIP3      OH2           -30.1025340712        5.3617775335      -41.6309251556  TIP3      5231            0.0000000000
     38012      5423  TIP3      H1            -30.3425283406        4.6963222599      -40.9628395985  TIP3      5231            0.0000000000
     38013      5423  TIP3      H2            -30.4122992310        6.1861255496      -41.1984072793  TIP3      5231            0.0000000000
     38014      5424  TIP3      OH2           -36.1817861875        5.1540752198      -35.0077544175  TIP3      5232            0.0000000000
     38015      5424  TIP3      H1            -35.8126722094        4.9131080464      -34.1359586646  TIP3      5232            0.0000000000
     38016      5424  TIP3      H2            -36.1353656169        4.3520169357      -35.5321225075  TIP3      5232            0.0000000000
     38017      5425  TIP3      OH2           -35.3045574781        5.9658895245      -39.6652973267  TIP3      5233            0.0000000000
     38018      5425  TIP3      H1            -34.9958198052        5.7231135706      -40.5542221052  TIP3      5233            0.0000000000
     38019      5425  TIP3      H2            -35.9541572782        6.6778120305      -39.8598543355  TIP3      5233            0.0000000000
     38020      5426  TIP3      OH2           -25.5924480911        8.9279495381      -29.7471901277  TIP3      5234            0.0000000000
     38021      5426  TIP3      H1            -24.8780614590        8.3890600168      -30.1591412260  TIP3      5234            0.0000000000
     38022      5426  TIP3      H2            -26.0751395029        8.2320639487      -29.2544882734  TIP3      5234            0.0000000000
     38023      5427  TIP3      OH2           -27.9439561952        4.7571260341      -34.8258220308  TIP3      5235            0.0000000000
     38024      5427  TIP3      H1            -28.8655067771        4.8048486814      -34.5137246265  TIP3      5235            0.0000000000
     38025      5427  TIP3      H2            -27.5093528248        4.2272278545      -34.1194432094  TIP3      5235            0.0000000000
     38026      5428  TIP3      OH2           -33.3864636588        6.5938938560      -36.2035130791  TIP3      5236            0.0000000000
     38027      5428  TIP3      H1            -34.0828705866        6.8142456696      -36.8507041975  TIP3      5236            0.0000000000
     38028      5428  TIP3      H2            -33.2523107636        5.6275701767      -36.3569467108  TIP3      5236            0.0000000000
     38029      5429  TIP3      OH2           -30.5930901951        6.6447271642      -38.4306908591  TIP3      5237            0.0000000000
     38030      5429  TIP3      H1            -29.6445049693        6.7968449045      -38.3321273917  TIP3      5237            0.0000000000
     38031      5429  TIP3      H2            -30.7963533566        7.1849351020      -39.2343863396  TIP3      5237            0.0000000000
     38032      5430  TIP3      OH2           -23.9531653455        4.2196941173      -31.7264533901  TIP3      5238            0.0000000000
     38033      5430  TIP3      H1            -24.5967367525        4.2461042941      -30.9828021725  TIP3      5238            0.0000000000
     38034      5430  TIP3      H2            -24.4032062355        3.6875004845      -32.3937442428  TIP3      5238            0.0000000000
     38035      5431  TIP3      OH2           -31.1469792657        7.7334653048      -40.7951510707  TIP3      5239            0.0000000000
     38036      5431  TIP3      H1            -31.7346947700        7.6174071956      -41.5636186920  TIP3      5239            0.0000000000
     38037      5431  TIP3      H2            -30.3766930730        8.1873879169      -41.2167219745  TIP3      5239            0.0000000000
     38038      5432  TIP3      OH2           -21.2154770988       19.9139914957      -24.9631209054  TIP3      5240            0.0000000000
     38039      5432  TIP3      H1            -20.8677552066       20.2786851683      -25.8006032807  TIP3      5240            0.0000000000
     38040      5432  TIP3      H2            -20.4676356588       20.0914188103      -24.3662836687  TIP3      5240            0.0000000000
     38041      5433  TIP3      OH2           -33.4191415000       12.3260391220      -25.5455394474  TIP3      5241            0.0000000000
     38042      5433  TIP3      H1            -32.5827918739       12.7031092606      -25.2197355873  TIP3      5241            0.0000000000
     38043      5433  TIP3      H2            -34.0315319366       12.5861740873      -24.8463777485  TIP3      5241            0.0000000000
     38044      5434  TIP3      OH2           -27.6644570406        7.4821036204      -33.3854659158  TIP3      5242            0.0000000000
     38045      5434  TIP3      H1            -26.7112158152        7.3080147290      -33.2962440598  TIP3      5242            0.0000000000
     38046      5434  TIP3      H2            -28.0647155215        6.8099308866      -32.8143051646  TIP3      5242            0.0000000000
     38047      5435  TIP3      OH2           -32.7303082079        3.9298320923      -36.4362360515  TIP3      5243            0.0000000000
     38048      5435  TIP3      H1            -33.3550409859        3.3448105009      -35.9528977570  TIP3      5243            0.0000000000
     38049      5435  TIP3      H2            -32.6367530066        3.4436270283      -37.2673006761  TIP3      5243            0.0000000000
     38050      5436  TIP3      OH2           -28.7015559986        5.8924656585      -30.3809491825  TIP3      5244            0.0000000000
     38051      5436  TIP3      H1            -29.5049293169        6.4452000685      -30.4870733112  TIP3      5244            0.0000000000
     38052      5436  TIP3      H2            -28.1134956709        6.4938979989      -29.9059659671  TIP3      5244            0.0000000000
     38053      5437  TIP3      OH2           -27.9598609004       12.2905949807      -38.5404769341  TIP3      5245            0.0000000000
     38054      5437  TIP3      H1            -28.6973287083       11.7337700433      -38.8837470210  TIP3      5245            0.0000000000
     38055      5437  TIP3      H2            -28.3819880148       12.6285291942      -37.7098604431  TIP3      5245            0.0000000000
     38056      5438  TIP3      OH2           -20.6198519248       11.9839749917      -30.0650297622  TIP3      5246            0.0000000000
     38057      5438  TIP3      H1            -20.1021823831       12.5829435787      -30.6620943615  TIP3      5246            0.0000000000
     38058      5438  TIP3      H2            -21.4151120054       11.8373785068      -30.6080637962  TIP3      5246            0.0000000000
     38059      5439  TIP3      OH2           -24.0446016473        5.2649187887      -40.7321011193  TIP3      5247            0.0000000000
     38060      5439  TIP3      H1            -24.9170153596        5.3634607534      -41.1739467538  TIP3      5247            0.0000000000
     38061      5439  TIP3      H2            -23.9686795436        6.1247543502      -40.2766039631  TIP3      5247            0.0000000000
     38062      5440  TIP3      OH2           -26.6357892585       12.6692342653      -27.1748038428  TIP3      5248            0.0000000000
     38063      5440  TIP3      H1            -27.0718814036       12.4636549760      -26.3332801869  TIP3      5248            0.0000000000
     38064      5440  TIP3      H2            -26.9399619908       13.5812936589      -27.3425661841  TIP3      5248            0.0000000000
     38065      5441  TIP3      OH2           -23.4474145869        7.3758199016      -38.9476924817  TIP3      5249            0.0000000000
     38066      5441  TIP3      H1            -22.8661559136        7.1480461972      -38.1997935357  TIP3      5249            0.0000000000
     38067      5441  TIP3      H2            -22.9373839009        8.0577463151      -39.3988469330  TIP3      5249            0.0000000000
     38068      5442  TIP3      OH2           -33.0372982255       11.9301629757      -33.4749026738  TIP3      5250            0.0000000000
     38069      5442  TIP3      H1            -32.4658021025       11.6537598582      -34.2181390401  TIP3      5250            0.0000000000
     38070      5442  TIP3      H2            -32.9476216666       11.1595072970      -32.8866958123  TIP3      5250            0.0000000000
     38071      5443  TIP3      OH2           -26.0353864311       13.6370170186      -39.7930414976  TIP3      5251            0.0000000000
     38072      5443  TIP3      H1            -26.3560066469       14.5025295754      -39.4350231623  TIP3      5251            0.0000000000
     38073      5443  TIP3      H2            -26.7319081499       13.0231257823      -39.4705659959  TIP3      5251            0.0000000000
     38074      5444  TIP3      OH2           -35.5302876482        9.6929377365      -28.3488691492  TIP3      5252            0.0000000000
     38075      5444  TIP3      H1            -36.0303703095        9.7996246599      -27.5010038691  TIP3      5252            0.0000000000
     38076      5444  TIP3      H2            -36.2052533089        9.8616907397      -29.0279700826  TIP3      5252            0.0000000000
     38077      5445  TIP3      OH2           -28.5581855833        9.9532700433      -25.9646210668  TIP3      5253            0.0000000000
     38078      5445  TIP3      H1            -29.0226869028        9.4235359733      -26.6451505417  TIP3      5253            0.0000000000
     38079      5445  TIP3      H2            -27.6798459728        9.5118642286      -25.9350339386  TIP3      5253            0.0000000000
     38080      5446  TIP3      OH2           -23.9957043450       15.0515088658      -27.2890616688  TIP3      5254            0.0000000000
     38081      5446  TIP3      H1            -24.7322800898       15.1642666163      -27.9118073195  TIP3      5254            0.0000000000
     38082      5446  TIP3      H2            -24.3629539997       15.4717040854      -26.4865445042  TIP3      5254            0.0000000000
     38083      5447  TIP3      OH2           -18.6639386146        7.1566240397      -39.0648899092  TIP3      5255            0.0000000000
     38084      5447  TIP3      H1            -19.2871478792        7.1217269545      -39.8129757965  TIP3      5255            0.0000000000
     38085      5447  TIP3      H2            -18.3658954716        8.0778739064      -39.1701957556  TIP3      5255            0.0000000000
     38086      5448  TIP3      OH2           -18.4831730949       13.0621972344      -26.6076993767  TIP3      5256            0.0000000000
     38087      5448  TIP3      H1            -19.3012272783       13.3879943708      -27.0471049547  TIP3      5256            0.0000000000
     38088      5448  TIP3      H2            -17.8632965160       13.0128197672      -27.3714774285  TIP3      5256            0.0000000000
     38089      5449  TIP3      OH2           -20.6906589881       16.2840577638      -39.1154436720  TIP3      5257            0.0000000000
     38090      5449  TIP3      H1            -20.6802750662       15.4641112095      -38.6023204363  TIP3      5257            0.0000000000
     38091      5449  TIP3      H2            -20.0893440714       16.0729542236      -39.8598985107  TIP3      5257            0.0000000000
     38092      5450  TIP3      OH2           -23.1272929763       11.0896992385      -31.8060007090  TIP3      5258            0.0000000000
     38093      5450  TIP3      H1            -24.0306780903       10.8075875590      -32.0132123139  TIP3      5258            0.0000000000
     38094      5450  TIP3      H2            -22.6332193280       10.3860006500      -32.2678551336  TIP3      5258            0.0000000000
     38095      5451  TIP3      OH2           -30.7251058607       15.1592147972      -35.5190459470  TIP3      5259            0.0000000000
     38096      5451  TIP3      H1            -30.5250918681       16.0508538542      -35.8805279748  TIP3      5259            0.0000000000
     38097      5451  TIP3      H2            -31.6237982054       15.0147353166      -35.8502785817  TIP3      5259            0.0000000000
     38098      5452  TIP3      OH2           -34.9886188363        9.6297253844      -41.1180647687  TIP3      5260            0.0000000000
     38099      5452  TIP3      H1            -34.3775502843       10.2666579049      -40.6999247013  TIP3      5260            0.0000000000
     38100      5452  TIP3      H2            -35.7314308745        9.6187694627      -40.5051833977  TIP3      5260            0.0000000000
     38101      5453  TIP3      OH2           -29.2021824119       13.0206247284      -36.2407977519  TIP3      5261            0.0000000000
     38102      5453  TIP3      H1            -29.5959736256       13.9030225465      -36.0842165024  TIP3      5261            0.0000000000
     38103      5453  TIP3      H2            -29.8061103486       12.4601079957      -35.7219782403  TIP3      5261            0.0000000000
     38104      5454  TIP3      OH2           -28.4865273362       17.0799059732      -29.3334605225  TIP3      5262            0.0000000000
     38105      5454  TIP3      H1            -27.8822098105       17.7900564560      -29.5973008233  TIP3      5262            0.0000000000
     38106      5454  TIP3      H2            -27.9206632169       16.5697392234      -28.7217831654  TIP3      5262            0.0000000000
     38107      5455  TIP3      OH2           -30.1278088592       17.7175579110      -36.6350765958  TIP3      5263            0.0000000000
     38108      5455  TIP3      H1            -31.0906093043       17.8632769763      -36.5268045486  TIP3      5263            0.0000000000
     38109      5455  TIP3      H2            -29.8294649418       18.5882049726      -36.2999080512  TIP3      5263            0.0000000000
     38110      5456  TIP3      OH2           -25.3593883120       13.0699555521      -29.9765780927  TIP3      5264            0.0000000000
     38111      5456  TIP3      H1            -25.5505286448       12.9554581372      -29.0222522790  TIP3      5264            0.0000000000
     38112      5456  TIP3      H2            -24.6057988926       12.4689188646      -30.1232216502  TIP3      5264            0.0000000000
     38113      5457  TIP3      OH2           -22.7646074532       14.2318586104      -40.6080231341  TIP3      5265            0.0000000000
     38114      5457  TIP3      H1            -22.4601156179       13.7196893246      -39.8305566580  TIP3      5265            0.0000000000
     38115      5457  TIP3      H2            -23.6942381411       13.9639920622      -40.5978431623  TIP3      5265            0.0000000000
     38116      5458  TIP3      OH2           -22.1991038660       17.4731352295      -27.5595833873  TIP3      5266            0.0000000000
     38117      5458  TIP3      H1            -23.0835493295       17.0525889900      -27.5264683477  TIP3      5266            0.0000000000
     38118      5458  TIP3      H2            -22.2751048662       18.0595019355      -28.3449311748  TIP3      5266            0.0000000000
     38119      5459  TIP3      OH2           -18.3579209414       18.3621636936      -40.6462178308  TIP3      5267            0.0000000000
     38120      5459  TIP3      H1            -17.8707953680       19.0496656472      -41.1299769651  TIP3      5267            0.0000000000
     38121      5459  TIP3      H2            -19.0161656089       18.9390014744      -40.1932321777  TIP3      5267            0.0000000000
     38122      5460  TIP3      OH2           -34.5634434662        5.1503329304      -28.2485610002  TIP3      5268            0.0000000000
     38123      5460  TIP3      H1            -35.1182646795        5.4911048771      -27.5163025940  TIP3      5268            0.0000000000
     38124      5460  TIP3      H2            -34.8284739074        4.2134492054      -28.2209210753  TIP3      5268            0.0000000000
     38125      5461  TIP3      OH2           -21.9472754841       12.6823066822      -38.4974217164  TIP3      5269            0.0000000000
     38126      5461  TIP3      H1            -22.1057583703       11.7418884167      -38.2896774168  TIP3      5269            0.0000000000
     38127      5461  TIP3      H2            -20.9747274002       12.7183355928      -38.4073539381  TIP3      5269            0.0000000000
     38128      5462  TIP3      OH2           -34.4786350865       16.6551644772      -30.0831595718  TIP3      5270            0.0000000000
     38129      5462  TIP3      H1            -34.0408914353       15.8158974015      -29.8867365682  TIP3      5270            0.0000000000
     38130      5462  TIP3      H2            -34.8014370023       16.9281843017      -29.2178643196  TIP3      5270            0.0000000000
     38131      5463  TIP3      OH2           -30.0140887188       14.7807031909      -40.2962319953  TIP3      5271            0.0000000000
     38132      5463  TIP3      H1            -29.4510462251       14.2143878818      -39.7469597440  TIP3      5271            0.0000000000
     38133      5463  TIP3      H2            -29.7782050608       15.6672575469      -39.9281995696  TIP3      5271            0.0000000000
     38134      5464  TIP3      OH2           -33.7822291729       11.7229502838      -39.3574469510  TIP3      5272            0.0000000000
     38135      5464  TIP3      H1            -34.4861462423       12.2852430469      -38.9703697908  TIP3      5272            0.0000000000
     38136      5464  TIP3      H2            -33.3150474361       12.3493115018      -39.9283425584  TIP3      5272            0.0000000000
     38137      5465  TIP3      OH2           -25.1782337249        4.5449235789      -29.1280710600  TIP3      5273            0.0000000000
     38138      5465  TIP3      H1            -24.5036578667        4.7380459320      -28.4462254518  TIP3      5273            0.0000000000
     38139      5465  TIP3      H2            -25.6080068291        3.7363945225      -28.7734708386  TIP3      5273            0.0000000000
     38140      5466  TIP3      OH2           -24.8886463976        4.3626311218      -38.0786397766  TIP3      5274            0.0000000000
     38141      5466  TIP3      H1            -24.3796352258        4.6451699383      -38.8602171474  TIP3      5274            0.0000000000
     38142      5466  TIP3      H2            -24.4432120036        4.8256801950      -37.3365613079  TIP3      5274            0.0000000000
     38143      5467  TIP3      OH2           -26.6926834910       16.0979402929      -39.0129670452  TIP3      5275            0.0000000000
     38144      5467  TIP3      H1            -27.3605288363       16.8002694017      -38.9206598536  TIP3      5275            0.0000000000
     38145      5467  TIP3      H2            -26.1757467839       16.4318815740      -39.7703205006  TIP3      5275            0.0000000000
     38146      5468  TIP3      OH2           -27.5164875215        6.2926539847      -37.0518376229  TIP3      5276            0.0000000000
     38147      5468  TIP3      H1            -26.8310664591        6.9624415465      -36.8427001988  TIP3      5276            0.0000000000
     38148      5468  TIP3      H2            -27.6682010867        5.8377883324      -36.1920143197  TIP3      5276            0.0000000000
     38149      5469  TIP3      OH2           -26.8985958668        7.1227212351      -28.0944317730  TIP3      5277            0.0000000000
     38150      5469  TIP3      H1            -26.6870419941        7.6008861250      -27.2580620496  TIP3      5277            0.0000000000
     38151      5469  TIP3      H2            -26.7051091597        6.2004605626      -27.8607022004  TIP3      5277            0.0000000000
     38152      5470  TIP3      OH2           -26.7939295252        2.8981073872      -36.7779939944  TIP3      5278            0.0000000000
     38153      5470  TIP3      H1            -27.1403569091        3.5334022934      -36.1230246635  TIP3      5278            0.0000000000
     38154      5470  TIP3      H2            -26.0422131141        3.4207330264      -37.1598189952  TIP3      5278            0.0000000000
     38155      5471  TIP3      OH2           -29.2475823107       17.2688589416      -39.2346017961  TIP3      5279            0.0000000000
     38156      5471  TIP3      H1            -29.1476960424       18.0953018661      -39.7640977472  TIP3      5279            0.0000000000
     38157      5471  TIP3      H2            -29.6758402421       17.6419224782      -38.4330419765  TIP3      5279            0.0000000000
     38158      5472  TIP3      OH2           -31.3244025474        3.9544749217      -39.5147533931  TIP3      5280            0.0000000000
     38159      5472  TIP3      H1            -31.6039546469        4.7230856218      -38.9902153377  TIP3      5280            0.0000000000
     38160      5472  TIP3      H2            -30.3970877038        3.9038246635      -39.2041280721  TIP3      5280            0.0000000000
     38161      5473  TIP3      OH2           -21.0188414369        4.7715114920      -26.9948042317  TIP3      5281            0.0000000000
     38162      5473  TIP3      H1            -21.9358047432        5.0629126598      -27.2124756201  TIP3      5281            0.0000000000
     38163      5473  TIP3      H2            -20.5321536873        4.9849817814      -27.8097073949  TIP3      5281            0.0000000000
     38164      5474  TIP3      OH2           -22.0009287288        8.7239790452      -33.2388835087  TIP3      5282            0.0000000000
     38165      5474  TIP3      H1            -22.7590673875        8.1301988819      -33.0990874367  TIP3      5282            0.0000000000
     38166      5474  TIP3      H2            -21.2838530555        8.2470081003      -32.7670804161  TIP3      5282            0.0000000000
     38167      5475  TIP3      OH2           -33.1531264537       14.4418073797      -40.6408503246  TIP3      5283            0.0000000000
     38168      5475  TIP3      H1            -32.2892053795       14.7373978394      -40.3088237386  TIP3      5283            0.0000000000
     38169      5475  TIP3      H2            -32.8854600311       13.8585846273      -41.3600115741  TIP3      5283            0.0000000000
     38170      5476  TIP3      OH2           -34.0864072548        7.1665538198      -41.9201991722  TIP3      5284            0.0000000000
     38171      5476  TIP3      H1            -34.1052591579        8.0499142837      -41.5222153572  TIP3      5284            0.0000000000
     38172      5476  TIP3      H2            -35.0094232489        6.9123778727      -41.8180703476  TIP3      5284            0.0000000000
     38173      5477  TIP3      OH2           -21.2416358450       17.8976248431      -31.7883619715  TIP3      5285            0.0000000000
     38174      5477  TIP3      H1            -21.2992181043       18.6634507726      -32.3993943451  TIP3      5285            0.0000000000
     38175      5477  TIP3      H2            -20.2649223532       17.8490983285      -31.7173866428  TIP3      5285            0.0000000000
     38176      5478  TIP3      OH2           -33.7547592647        2.0797740666      -32.7275551146  TIP3      5286            0.0000000000
     38177      5478  TIP3      H1            -33.8257244708        1.9594431650      -33.7004741358  TIP3      5286            0.0000000000
     38178      5478  TIP3      H2            -33.8808034447        1.1550898721      -32.4173908624  TIP3      5286            0.0000000000
     38179      5479  TIP3      OH2           -34.3622420251       16.0246264604      -36.4495077894  TIP3      5287            0.0000000000
     38180      5479  TIP3      H1            -35.2709029361       15.9687332271      -36.1455355510  TIP3      5287            0.0000000000
     38181      5479  TIP3      H2            -34.4606153569       16.4736433842      -37.3179074201  TIP3      5287            0.0000000000
     38182      5480  TIP3      OH2           -35.3982662417       18.5700645728      -25.9876971988  TIP3      5288            0.0000000000
     38183      5480  TIP3      H1            -34.8408962585       18.4307368971      -25.2038010005  TIP3      5288            0.0000000000
     38184      5480  TIP3      H2            -36.0170459623       17.8061220440      -25.8928276921  TIP3      5288            0.0000000000
     38185      5481  TIP3      OH2           -25.9903447429       17.2652578322      -41.4421324838  TIP3      5289            0.0000000000
     38186      5481  TIP3      H1            -26.7229593255       16.8112933854      -41.8913275543  TIP3      5289            0.0000000000
     38187      5481  TIP3      H2            -25.2640146833       17.1705209965      -42.0780047017  TIP3      5289            0.0000000000
     38188      5482  TIP3      OH2           -24.4883781203       16.3877516528      -24.9727386893  TIP3      5290            0.0000000000
     38189      5482  TIP3      H1            -24.6775116700       15.4484423333      -24.7260767124  TIP3      5290            0.0000000000
     38190      5482  TIP3      H2            -23.5593264979       16.4422586965      -24.6582013102  TIP3      5290            0.0000000000
     38191      5483  TIP3      OH2           -21.6114011277       16.5570482726      -42.2248171338  TIP3      5291            0.0000000000
     38192      5483  TIP3      H1            -22.0591292581       15.8506589320      -41.7195227191  TIP3      5291            0.0000000000
     38193      5483  TIP3      H2            -20.6958010821       16.3819503751      -41.9212975215  TIP3      5291            0.0000000000
     38194      5484  TIP3      OH2           -31.2931395193       12.4691320696      -41.8844831548  TIP3      5292            0.0000000000
     38195      5484  TIP3      H1            -30.6712534756       12.5560203798      -41.1398799263  TIP3      5292            0.0000000000
     38196      5484  TIP3      H2            -30.6787026389       12.2646269242      -42.6179725582  TIP3      5292            0.0000000000
     38197      5485  TIP3      OH2           -28.9160248114       12.7572483374      -25.1124487860  TIP3      5293            0.0000000000
     38198      5485  TIP3      H1            -29.1776659385       13.1170183718      -25.9936327814  TIP3      5293            0.0000000000
     38199      5485  TIP3      H2            -28.9443076788       11.7887151331      -25.2698813762  TIP3      5293            0.0000000000
     38200      5486  TIP3      OH2           -23.2798231971       12.3528812776      -27.5221629925  TIP3      5294            0.0000000000
     38201      5486  TIP3      H1            -22.4531900203       12.8757439732      -27.5639541967  TIP3      5294            0.0000000000
     38202      5486  TIP3      H2            -23.8831412015       13.0849855781      -27.2967081205  TIP3      5294            0.0000000000
     38203      5487  TIP3      OH2           -29.9787220336       10.9347536149      -39.7050237993  TIP3      5295            0.0000000000
     38204      5487  TIP3      H1            -30.6990744953       10.5504028908      -39.1609758990  TIP3      5295            0.0000000000
     38205      5487  TIP3      H2            -29.8881485647       10.2496456041      -40.3910126427  TIP3      5295            0.0000000000
     38206      5488  TIP3      OH2           -29.7391713231        8.5492341785      -27.8756670512  TIP3      5296            0.0000000000
     38207      5488  TIP3      H1            -30.1958759260        9.4028693332      -27.9846510443  TIP3      5296            0.0000000000
     38208      5488  TIP3      H2            -28.9823864315        8.7218886776      -28.4927706762  TIP3      5296            0.0000000000
     38209      5489  TIP3      OH2           -29.0691774400        9.0569500849      -41.8241406835  TIP3      5297            0.0000000000
     38210      5489  TIP3      H1            -28.8332132523        9.2537791542      -42.7495207557  TIP3      5297            0.0000000000
     38211      5489  TIP3      H2            -28.2007070036        9.0987700490      -41.3670980583  TIP3      5297            0.0000000000
     38212      5490  TIP3      OH2           -25.6284559985       11.0237465165      -24.2820340243  TIP3      5298            0.0000000000
     38213      5490  TIP3      H1            -24.8257887142       11.0342815868      -24.8387161425  TIP3      5298            0.0000000000
     38214      5490  TIP3      H2            -25.4137620175       10.2910594037      -23.6619484997  TIP3      5298            0.0000000000
     38215      5491  TIP3      OH2           -19.7862976192       11.8933193215       42.4295647324  TIP3      5299            0.0000000000
     38216      5491  TIP3      H1            -20.1563778062       11.9431599473       41.5299926424  TIP3      5299            0.0000000000
     38217      5491  TIP3      H2            -19.6479106432       12.8225260210       42.6625615016  TIP3      5299            0.0000000000
     38218      5492  TIP3      OH2           -30.4529621107        6.0732517813      -26.8417346746  TIP3      5300            0.0000000000
     38219      5492  TIP3      H1            -30.1396029643        5.3624373131      -27.4487699252  TIP3      5300            0.0000000000
     38220      5492  TIP3      H2            -29.8032562280        6.7761247187      -27.0493418907  TIP3      5300            0.0000000000
     38221      5493  TIP3      OH2           -30.0313367321        4.3104889623      -28.7989433040  TIP3      5301            0.0000000000
     38222      5493  TIP3      H1            -29.5168520752        4.7330892393      -29.5348590195  TIP3      5301            0.0000000000
     38223      5493  TIP3      H2            -30.9082750466        4.2122982660      -29.2145606005  TIP3      5301            0.0000000000
     38224      5494  TIP3      OH2           -28.1617133684        9.7256617719      -29.6396290127  TIP3      5302            0.0000000000
     38225      5494  TIP3      H1            -27.2184871997        9.6591533447      -29.3962180164  TIP3      5302            0.0000000000
     38226      5494  TIP3      H2            -28.1885728522       10.6301793968      -29.9958307378  TIP3      5302            0.0000000000
     38227      5495  TIP3      OH2           -22.7843118994       10.6356844304      -25.4981632012  TIP3      5303            0.0000000000
     38228      5495  TIP3      H1            -23.0138801508       11.2289992037      -26.2446837020  TIP3      5303            0.0000000000
     38229      5495  TIP3      H2            -21.8415232686       10.4485812159      -25.6848473657  TIP3      5303            0.0000000000
     38230      5496  TIP3      OH2           -32.2566415413        7.3292171461      -24.7249174168  TIP3      5304            0.0000000000
     38231      5496  TIP3      H1            -33.0789265246        6.8698372875      -24.4766552686  TIP3      5304            0.0000000000
     38232      5496  TIP3      H2            -31.6570395598        6.5889530092      -24.9366683845  TIP3      5304            0.0000000000
     38233      5497  TIP3      OH2           -29.0318993026        1.7877446308      -29.0323900727  TIP3      5305            0.0000000000
     38234      5497  TIP3      H1            -29.4853809035        2.6458339768      -28.8920337313  TIP3      5305            0.0000000000
     38235      5497  TIP3      H2            -29.7388138752        1.2531431202      -29.4198346147  TIP3      5305            0.0000000000
     38236      5498  TIP3      OH2           -28.1397789530        6.1990404500      -25.0493148597  TIP3      5306            0.0000000000
     38237      5498  TIP3      H1            -27.7602280686        5.8489451664      -24.2110671640  TIP3      5306            0.0000000000
     38238      5498  TIP3      H2            -28.7565332392        5.4988881982      -25.2886009442  TIP3      5306            0.0000000000
     38239      5499  TIP3      OH2           -25.0301228347        4.8960745341      -25.6478865345  TIP3      5307            0.0000000000
     38240      5499  TIP3      H1            -25.9431799091        4.8222649994      -25.3526286051  TIP3      5307            0.0000000000
     38241      5499  TIP3      H2            -24.5700238388        4.4872925719      -24.8661006275  TIP3      5307            0.0000000000
     38242      5500  TIP3      OH2           -34.0512115059        5.2539186650      -24.6206155839  TIP3      5308            0.0000000000
     38243      5500  TIP3      H1            -33.6673954526        4.4922717929      -25.0950494286  TIP3      5308            0.0000000000
     38244      5500  TIP3      H2            -34.4149726493        4.8159849111      -23.8318157431  TIP3      5308            0.0000000000
     38245      5501  TIP3      OH2           -29.1636748923        1.5250148221      -26.3245649414  TIP3      5309            0.0000000000
     38246      5501  TIP3      H1            -28.5753212185        0.7569768538      -26.4075269979  TIP3      5309            0.0000000000
     38247      5501  TIP3      H2            -29.1563428680        1.8191685437      -27.2545197928  TIP3      5309            0.0000000000
     38248      5502  TIP3      OH2           -29.1314237021        2.3012320536      -23.5707423232  TIP3      5310            0.0000000000
     38249      5502  TIP3      H1            -28.9422947887        1.8784449772      -24.4319258700  TIP3      5310            0.0000000000
     38250      5502  TIP3      H2            -29.8116216730        2.9226905050      -23.8469018758  TIP3      5310            0.0000000000
     38251      5503  TIP3      OH2           -29.0355059234       19.5188413854      -40.5681871223  TIP3      5311            0.0000000000
     38252      5503  TIP3      H1            -28.1298138612       19.8312399876      -40.7709467659  TIP3      5311            0.0000000000
     38253      5503  TIP3      H2            -29.5735980370       20.0419377988      -41.1666855853  TIP3      5311            0.0000000000
     38254      5504  TIP3      OH2           -36.1321863438       14.3470424566      -41.1904508385  TIP3      5312            0.0000000000
     38255      5504  TIP3      H1            -35.1805067574       14.5537478982      -41.1558411349  TIP3      5312            0.0000000000
     38256      5504  TIP3      H2            -36.2352209719       13.9920010543      -42.0846487591  TIP3      5312            0.0000000000
     38257      5505  TIP3      OH2            36.8597236538       20.1471076034      -36.4195423163  TIP3      5313            0.0000000000
     38258      5505  TIP3      H1             35.9553524129       19.8117966132      -36.2696472263  TIP3      5313            0.0000000000
     38259      5505  TIP3      H2             37.3362422809       19.5340584484      -35.8410248645  TIP3      5313            0.0000000000
     38260      5506  TIP3      OH2           -35.7670094922       17.9429463215      -34.4893989275  TIP3      5314            0.0000000000
     38261      5506  TIP3      H1            -35.6710510441       17.0039724493      -34.2226889653  TIP3      5314            0.0000000000
     38262      5506  TIP3      H2            -35.2966953962       18.3795988166      -33.7536584877  TIP3      5314            0.0000000000
     38263      5507  TIP3      OH2           -18.5370953702       18.4090083352      -31.4723247060  TIP3      5315            0.0000000000
     38264      5507  TIP3      H1            -18.2915339679       18.4478004969      -30.5327739853  TIP3      5315            0.0000000000
     38265      5507  TIP3      H2            -18.0835095596       19.1983630974      -31.8020151285  TIP3      5315            0.0000000000
     38266      5508  TIP3      OH2           -18.9222157720       17.9620469016      -28.6264343448  TIP3      5316            0.0000000000
     38267      5508  TIP3      H1            -19.2966548849       17.2449254118      -29.1846532985  TIP3      5316            0.0000000000
     38268      5508  TIP3      H2            -18.6559540552       17.4391446013      -27.8497795509  TIP3      5316            0.0000000000
     38269      5509  TIP3      OH2           -20.1963936058       13.6228367269      -23.7723226591  TIP3      5317            0.0000000000
     38270      5509  TIP3      H1            -20.6555488034       13.4638873098      -22.9326591472  TIP3      5317            0.0000000000
     38271      5509  TIP3      H2            -19.8367414436       14.5192326144      -23.6374721170  TIP3      5317            0.0000000000
     38272      5510  TIP3      OH2           -19.1292289416       12.2146180611      -38.4909488314  TIP3      5318            0.0000000000
     38273      5510  TIP3      H1            -18.2689058488       12.6759941178      -38.3509606187  TIP3      5318            0.0000000000
     38274      5510  TIP3      H2            -19.1119412222       11.5971443071      -37.7323321411  TIP3      5318            0.0000000000
     38275      5511  TIP3      OH2           -18.6717527678       10.4103682666      -36.3787864275  TIP3      5319            0.0000000000
     38276      5511  TIP3      H1            -19.4314434151        9.9141241271      -35.9923162579  TIP3      5319            0.0000000000
     38277      5511  TIP3      H2            -18.0761482254       10.4787027547      -35.5987824496  TIP3      5319            0.0000000000
     38278      5512  TIP3      OH2           -18.9587329419       13.1162424229      -31.7249040006  TIP3      5320            0.0000000000
     38279      5512  TIP3      H1            -18.3107484003       12.3936040716      -31.8780550319  TIP3      5320            0.0000000000
     38280      5512  TIP3      H2            -18.4474196982       13.9008619872      -32.0130739070  TIP3      5320            0.0000000000
     38281      5513  TIP3      OH2           -20.3968931361       15.8262523633      -29.3389223439  TIP3      5321            0.0000000000
     38282      5513  TIP3      H1            -21.0490348761       16.2822463336      -28.7777683047  TIP3      5321            0.0000000000
     38283      5513  TIP3      H2            -20.8721272392       15.6944869174      -30.1915942487  TIP3      5321            0.0000000000
     38284      5514  TIP3      OH2           -18.7672107185        9.7714037934      -40.2905332005  TIP3      5322            0.0000000000
     38285      5514  TIP3      H1            -19.3464037216       10.1033508519      -41.0013027548  TIP3      5322            0.0000000000
     38286      5514  TIP3      H2            -18.8721851453       10.4528549878      -39.6128312058  TIP3      5322            0.0000000000
     38287      5515  TIP3      OH2           -20.9734491179        7.2388379496      -41.2947786213  TIP3      5323            0.0000000000
     38288      5515  TIP3      H1            -20.1896112713        7.6928581377      -41.6519089331  TIP3      5323            0.0000000000
     38289      5515  TIP3      H2            -20.8249497515        6.3406183437      -41.6654845942  TIP3      5323            0.0000000000
     38290      5516  TIP3      OH2           -20.6215386856        8.8034826312      -35.5161156035  TIP3      5324            0.0000000000
     38291      5516  TIP3      H1            -20.9857311941        7.9656639334      -35.8474197121  TIP3      5324            0.0000000000
     38292      5516  TIP3      H2            -21.0268316218        8.8490848555      -34.6188222451  TIP3      5324            0.0000000000
     38293      5517  TIP3      OH2           -36.1411272035       11.1982543202      -31.9250799566  TIP3      5325            0.0000000000
     38294      5517  TIP3      H1            -36.0710595005       10.9396463545      -32.8739675865  TIP3      5325            0.0000000000
     38295      5517  TIP3      H2            -35.2031168509       11.3947235189      -31.7351954153  TIP3      5325            0.0000000000
     38296      5518  TIP3      OH2           -20.0899303025       10.5918145563      -26.4108419617  TIP3      5326            0.0000000000
     38297      5518  TIP3      H1            -19.4593480847        9.8395787029      -26.4016067559  TIP3      5326            0.0000000000
     38298      5518  TIP3      H2            -19.5362057879       11.3106316073      -26.7470703976  TIP3      5326            0.0000000000
     38299      5519  TIP3      OH2           -18.6488444361        8.2669978788      -25.9941334569  TIP3      5327            0.0000000000
     38300      5519  TIP3      H1            -19.6000133254        8.0109772790      -25.8780837176  TIP3      5327            0.0000000000
     38301      5519  TIP3      H2            -18.2209267810        7.4864682447      -25.5811751604  TIP3      5327            0.0000000000
     38302      5520  TIP3      OH2           -20.8621102449        4.8997068395      -42.5689905735  TIP3      5328            0.0000000000
     38303      5520  TIP3      H1            -20.2532279517        4.4201861246      -41.9543486094  TIP3      5328            0.0000000000
     38304      5520  TIP3      H2            -21.7427339563        4.6442431686      -42.2449220997  TIP3      5328            0.0000000000
     38305      5521  TIP3      OH2           -21.4783136631        6.6022214722      -37.2204048020  TIP3      5329            0.0000000000
     38306      5521  TIP3      H1            -21.1276148403        5.7335730814      -36.9230904175  TIP3      5329            0.0000000000
     38307      5521  TIP3      H2            -21.0395624290        6.6202309406      -38.0876615553  TIP3      5329            0.0000000000
     38308      5522  TIP3      OH2           -20.3157247067        7.1050357793      -31.9354774583  TIP3      5330            0.0000000000
     38309      5522  TIP3      H1            -19.3371899736        7.2328893340      -31.9333383356  TIP3      5330            0.0000000000
     38310      5522  TIP3      H2            -20.4737324143        7.2396066471      -30.9771893416  TIP3      5330            0.0000000000
     38311      5523  TIP3      OH2           -20.3316758618        7.7763476222      -29.3333242814  TIP3      5331            0.0000000000
     38312      5523  TIP3      H1            -21.0730775946        7.9787737513      -28.7178200408  TIP3      5331            0.0000000000
     38313      5523  TIP3      H2            -19.9250476357        8.6651967291      -29.4491285518  TIP3      5331            0.0000000000
     38314      5524  TIP3      OH2           -36.2836553923        5.7885609901      -25.9344009174  TIP3      5332            0.0000000000
     38315      5524  TIP3      H1            -35.4486038439        5.5754431841      -25.4585027886  TIP3      5332            0.0000000000
     38316      5524  TIP3      H2            -36.9317691596        5.6657982238      -25.2233622358  TIP3      5332            0.0000000000
     38317      5525  TIP3      OH2           -17.8695425065        1.6820256787      -23.5755523329  TIP3      5333            0.0000000000
     38318      5525  TIP3      H1            -17.3301429091        1.2350732417      -24.2524552463  TIP3      5333            0.0000000000
     38319      5525  TIP3      H2            -18.3170558499        2.3651157039      -24.1013971789  TIP3      5333            0.0000000000
     38320      5526  TIP3      OH2           -20.5941902806        3.9849981881      -37.2144450973  TIP3      5334            0.0000000000
     38321      5526  TIP3      H1            -20.2612042623        3.4439651764      -36.4706987469  TIP3      5334            0.0000000000
     38322      5526  TIP3      H2            -21.1109134666        3.3268487372      -37.7016022076  TIP3      5334            0.0000000000
     38323      5527  TIP3      OH2           -35.1043090229        4.5391057085      -32.5555176142  TIP3      5335            0.0000000000
     38324      5527  TIP3      H1            -34.7499913598        3.6255532015      -32.5186923859  TIP3      5335            0.0000000000
     38325      5527  TIP3      H2            -34.2935754923        5.0779478799      -32.4407828195  TIP3      5335            0.0000000000
     38326      5528  TIP3      OH2           -36.1535820194        8.5481132856      -31.2599712382  TIP3      5336            0.0000000000
     38327      5528  TIP3      H1            -35.5974100100        8.3012427344      -32.0117736872  TIP3      5336            0.0000000000
     38328      5528  TIP3      H2            -36.3394406272        9.4697564199      -31.5283053276  TIP3      5336            0.0000000000
     38329      5529  TIP3      OH2           -18.9693321336        3.6826273309      -25.5043373819  TIP3      5337            0.0000000000
     38330      5529  TIP3      H1            -19.8492473206        4.0857829203      -25.6934645482  TIP3      5337            0.0000000000
     38331      5529  TIP3      H2            -18.9340406003        3.1286519610      -26.3020666851  TIP3      5337            0.0000000000
     38332      5530  TIP3      OH2           -19.0085360507        3.8203353240      -40.9285341285  TIP3      5338            0.0000000000
     38333      5530  TIP3      H1            -18.5484917063        3.2938311123      -41.5989554815  TIP3      5338            0.0000000000
     38334      5530  TIP3      H2            -18.2921725017        4.4159906397      -40.6329861589  TIP3      5338            0.0000000000
     38335      5531  TIP3      OH2           -35.8983274580        4.0408397175      -37.8887467910  TIP3      5339            0.0000000000
     38336      5531  TIP3      H1            -36.8164280952        4.2733998779      -37.7047502172  TIP3      5339            0.0000000000
     38337      5531  TIP3      H2            -35.6461817434        4.7782659208      -38.4963466732  TIP3      5339            0.0000000000
     38338      5532  TIP3      OH2           -21.5695204417       18.7522091279      -35.5493673686  TIP3      5340            0.0000000000
     38339      5532  TIP3      H1            -20.9469638206       18.4397028801      -36.2377169495  TIP3      5340            0.0000000000
     38340      5532  TIP3      H2            -21.0521106287       19.3389777138      -34.9746414215  TIP3      5340            0.0000000000
     38341      5533  TIP3      OH2           -36.3095800359        2.0287805945      -29.4126526476  TIP3      5341            0.0000000000
     38342      5533  TIP3      H1            -36.6877490337        2.4115960894      -28.6127198847  TIP3      5341            0.0000000000
     38343      5533  TIP3      H2            -36.5336358664        2.6785276096      -30.1108513074  TIP3      5341            0.0000000000
     38344      5534  TIP3      OH2           -34.0206052152       15.3585807836      -25.3396110072  TIP3      5342            0.0000000000
     38345      5534  TIP3      H1            -34.8249008004       15.7972995294      -25.6300413795  TIP3      5342            0.0000000000
     38346      5534  TIP3      H2            -34.1087752703       15.2739434896      -24.3837520594  TIP3      5342            0.0000000000
     38347      5535  TIP3      OH2           -31.2016074637       17.0749986459      -28.8218326940  TIP3      5343            0.0000000000
     38348      5535  TIP3      H1            -31.2362261240       17.9838929937      -29.1750157928  TIP3      5343            0.0000000000
     38349      5535  TIP3      H2            -30.2407908666       16.8964106048      -28.8614552448  TIP3      5343            0.0000000000
     38350      5536  TIP3      OH2           -27.1557370829       17.7919405446      -26.4975172443  TIP3      5344            0.0000000000
     38351      5536  TIP3      H1            -27.0071750142       17.6412712195      -25.5470053882  TIP3      5344            0.0000000000
     38352      5536  TIP3      H2            -26.3888259288       18.3724886046      -26.7053490287  TIP3      5344            0.0000000000
     38353      5537  TIP3      OH2           -25.0368902832       19.5515660317      -26.7412348930  TIP3      5345            0.0000000000
     38354      5537  TIP3      H1            -24.4113281283       19.3068471176      -27.4495595312  TIP3      5345            0.0000000000
     38355      5537  TIP3      H2            -24.4256965363       19.8793733838      -26.0748072376  TIP3      5345            0.0000000000
     38356      5538  TIP3      OH2           -19.8624203891        1.7806998750      -27.4162681716  TIP3      5346            0.0000000000
     38357      5538  TIP3      H1            -20.4955531206        2.2680704475      -27.9580161983  TIP3      5346            0.0000000000
     38358      5538  TIP3      H2            -19.9038278280        0.8935475716      -27.8257336641  TIP3      5346            0.0000000000
     38359      5539  TIP3      OH2           -33.6497599852       19.9939563859      -29.1323510635  TIP3      5347            0.0000000000
     38360      5539  TIP3      H1            -34.5265531067       20.1981224513      -29.5167533973  TIP3      5347            0.0000000000
     38361      5539  TIP3      H2            -33.9100880214       19.8008801127      -28.2217049353  TIP3      5347            0.0000000000
     38362      5540  TIP3      OH2           -31.2408309471       19.7422294510      -30.1181283436  TIP3      5348            0.0000000000
     38363      5540  TIP3      H1            -32.1635024392       19.8309233062      -29.7686350809  TIP3      5348            0.0000000000
     38364      5540  TIP3      H2            -31.2521687851       20.3888762172      -30.8459832991  TIP3      5348            0.0000000000
     38365      5541  TIP3      OH2           -26.7303748229       19.0243986746      -30.8282781189  TIP3      5349            0.0000000000
     38366      5541  TIP3      H1            -27.2901301081       19.4395205324      -31.4993929837  TIP3      5349            0.0000000000
     38367      5541  TIP3      H2            -26.6160565434       19.7607221773      -30.1818524412  TIP3      5349            0.0000000000
     38368      5542  TIP3      OH2           -24.6479093182       17.8660638263      -29.4088327961  TIP3      5350            0.0000000000
     38369      5542  TIP3      H1            -25.3058210796       18.2687387791      -30.0137727998  TIP3      5350            0.0000000000
     38370      5542  TIP3      H2            -23.8743577238       18.4043062319      -29.6571636096  TIP3      5350            0.0000000000
     38371      5543  TIP3      OH2           -22.0946816322       19.1601144605      -29.5903810735  TIP3      5351            0.0000000000
     38372      5543  TIP3      H1            -21.8173710902       20.0037833004      -29.9945345819  TIP3      5351            0.0000000000
     38373      5543  TIP3      H2            -21.7625971749       18.5412489618      -30.2811771013  TIP3      5351            0.0000000000
     38374      5544  TIP3      OH2           -34.2080948270       18.5208629476      -32.0965166970  TIP3      5352            0.0000000000
     38375      5544  TIP3      H1            -34.3900369072       17.8541365810      -31.3980484034  TIP3      5352            0.0000000000
     38376      5544  TIP3      H2            -33.3279046709       18.2104538489      -32.4242948953  TIP3      5352            0.0000000000
     38377      5545  TIP3      OH2           -32.1402081491       17.4123660738      -33.4200694474  TIP3      5353            0.0000000000
     38378      5545  TIP3      H1            -32.3831207040       16.5147769807      -33.1362045590  TIP3      5353            0.0000000000
     38379      5545  TIP3      H2            -31.2902975383       17.5127656069      -32.9379624957  TIP3      5353            0.0000000000
     38380      5546  TIP3      OH2           -29.9296670132       17.2640034677      -31.9867510699  TIP3      5354            0.0000000000
     38381      5546  TIP3      H1            -29.8597236488       16.3239725118      -32.2593450601  TIP3      5354            0.0000000000
     38382      5546  TIP3      H2            -29.5081872973       17.2566130176      -31.1097642639  TIP3      5354            0.0000000000
     38383      5547  TIP3      OH2           -26.8989416418        2.9920918160      -33.1201658121  TIP3      5355            0.0000000000
     38384      5547  TIP3      H1            -27.7049903831        2.4297672438      -32.9804486656  TIP3      5355            0.0000000000
     38385      5547  TIP3      H2            -26.3036907334        2.4230679499      -33.6172483719  TIP3      5355            0.0000000000
     38386      5548  TIP3      OH2           -20.9783130921        1.4582907460      -33.2948377480  TIP3      5356            0.0000000000
     38387      5548  TIP3      H1            -20.2671754607        1.9311505073      -33.7829910429  TIP3      5356            0.0000000000
     38388      5548  TIP3      H2            -21.7861689777        1.7416755163      -33.7932594159  TIP3      5356            0.0000000000
     38389      5549  TIP3      OH2           -19.3101925856        2.4635658723      -35.2346144704  TIP3      5357            0.0000000000
     38390      5549  TIP3      H1            -18.6220577639        1.9071594092      -35.6612481303  TIP3      5357            0.0000000000
     38391      5549  TIP3      H2            -18.7961300004        3.2906278867      -35.0580208507  TIP3      5357            0.0000000000
     38392      5550  TIP3      OH2           -34.1008358825        1.8086950784      -35.5211194801  TIP3      5358            0.0000000000
     38393      5550  TIP3      H1            -34.7458024798        1.6137907335      -36.2379677821  TIP3      5358            0.0000000000
     38394      5550  TIP3      H2            -33.4988887053        1.0377973600      -35.6539982959  TIP3      5358            0.0000000000
     38395      5551  TIP3      OH2           -34.3548237483        1.6861318572      -39.4861932242  TIP3      5359            0.0000000000
     38396      5551  TIP3      H1            -34.3282089181        2.4204311119      -40.1291039782  TIP3      5359            0.0000000000
     38397      5551  TIP3      H2            -35.2882637944        1.7523908927      -39.1973820340  TIP3      5359            0.0000000000
     38398      5552  TIP3      OH2           -29.5400955868        1.4239718758      -35.6730376022  TIP3      5360            0.0000000000
     38399      5552  TIP3      H1            -28.6943965025        1.4974036226      -36.1367816250  TIP3      5360            0.0000000000
     38400      5552  TIP3      H2            -29.3085066655        1.6408247128      -34.7609362191  TIP3      5360            0.0000000000
     38401      5553  TIP3      OH2           -23.5142024039        1.8748358255      -34.2719701623  TIP3      5361            0.0000000000
     38402      5553  TIP3      H1            -23.8710735002        2.1260760403      -35.1285635979  TIP3      5361            0.0000000000
     38403      5553  TIP3      H2            -24.0518836495        1.0837275444      -34.0420832023  TIP3      5361            0.0000000000
     38404      5554  TIP3      OH2           -22.3514824841        1.6944326055      -38.6825228667  TIP3      5362            0.0000000000
     38405      5554  TIP3      H1            -23.1944580189        2.1185853544      -38.8672153246  TIP3      5362            0.0000000000
     38406      5554  TIP3      H2            -22.6671881388        0.8862450358      -38.2105202719  TIP3      5362            0.0000000000
     38407      5555  TIP3      OH2           -34.9611196777       17.7859381699      -38.7162185141  TIP3      5363            0.0000000000
     38408      5555  TIP3      H1            -35.8864634523       17.6900049114      -39.0200966575  TIP3      5363            0.0000000000
     38409      5555  TIP3      H2            -34.8260711782       18.7118752210      -38.9889056749  TIP3      5363            0.0000000000
     38410      5556  TIP3      OH2           -33.8852020499        3.5810149138      -41.3605839754  TIP3      5364            0.0000000000
     38411      5556  TIP3      H1            -33.1397686559        3.2396091522      -41.8763077514  TIP3      5364            0.0000000000
     38412      5556  TIP3      H2            -33.4161727484        4.0527895244      -40.6570916251  TIP3      5364            0.0000000000
     38413      5557  TIP3      OH2           -28.5115837531        4.2177112669      -38.7661777779  TIP3      5365            0.0000000000
     38414      5557  TIP3      H1            -27.9030415724        3.6393187903      -38.2843394898  TIP3      5365            0.0000000000
     38415      5557  TIP3      H2            -28.2644619314        5.0655912044      -38.3409565456  TIP3      5365            0.0000000000
     38416      5558  TIP3      OH2           -26.3134729812       19.8126034585      -40.7904017036  TIP3      5366            0.0000000000
     38417      5558  TIP3      H1            -25.7398505706       20.2268372759      -41.4474281625  TIP3      5366            0.0000000000
     38418      5558  TIP3      H2            -26.0647795592       18.8617935449      -40.8872706488  TIP3      5366            0.0000000000
     38419      5559  TIP3      OH2           -19.8627776725       18.0747678712      -37.4343380299  TIP3      5367            0.0000000000
     38420      5559  TIP3      H1            -20.1207719476       17.4017859904      -38.1175547392  TIP3      5367            0.0000000000
     38421      5559  TIP3      H2            -19.7821783636       18.8603589173      -38.0228116225  TIP3      5367            0.0000000000
     38422      5560  TIP3      OH2           -34.4649920291        2.4895889890      -26.2611136143  TIP3      5368            0.0000000000
     38423      5560  TIP3      H1            -34.9621225366        1.6925691039      -26.0275694671  TIP3      5368            0.0000000000
     38424      5560  TIP3      H2            -33.6483984731        2.2608961067      -25.7748034900  TIP3      5368            0.0000000000
     38425      5561  TIP3      OH2           -32.4435057665        1.4225912210      -24.3815060790  TIP3      5369            0.0000000000
     38426      5561  TIP3      H1            -31.5525808654        1.0618767325      -24.2656685216  TIP3      5369            0.0000000000
     38427      5561  TIP3      H2            -32.9365630560        0.8526507870      -23.7543656338  TIP3      5369            0.0000000000
     38428      5562  TIP3      OH2           -33.1524724730       19.2646968231      -41.4725958169  TIP3      5370            0.0000000000
     38429      5562  TIP3      H1            -33.3282967082       19.5675945318      -40.5557626356  TIP3      5370            0.0000000000
     38430      5562  TIP3      H2            -33.1123421793       18.3104199570      -41.3860345541  TIP3      5370            0.0000000000
     38431      5563  TIP3      OH2           -23.9467696259        0.8129322337      -24.5822435525  TIP3      5371            0.0000000000
     38432      5563  TIP3      H1            -24.1858868496        0.7645691883      -23.6474821754  TIP3      5371            0.0000000000
     38433      5563  TIP3      H2            -22.9874094761        0.9942966755      -24.5440457105  TIP3      5371            0.0000000000
     38434      5564  TIP3      OH2           -20.2922590854       17.2312905294      -25.7685137429  TIP3      5372            0.0000000000
     38435      5564  TIP3      H1            -20.9904365997       17.1422998482      -26.4659475936  TIP3      5372            0.0000000000
     38436      5564  TIP3      H2            -20.4004571788       18.1683115710      -25.5340968212  TIP3      5372            0.0000000000
     38437      5565  TIP3      OH2            -5.7655447987       11.1176641924      -35.7129104556  TIP3      5373            0.0000000000
     38438      5565  TIP3      H1             -5.9515196336       12.0794377295      -35.6606305259  TIP3      5373            0.0000000000
     38439      5565  TIP3      H2             -6.5960179734       10.7988431977      -36.1001206823  TIP3      5373            0.0000000000
     38440      5566  TIP3      OH2            -7.0322818073        9.8895167221      -32.3724141729  TIP3      5374            0.0000000000
     38441      5566  TIP3      H1             -6.8615119262        9.5013101863      -31.4796595912  TIP3      5374            0.0000000000
     38442      5566  TIP3      H2             -7.8058128199        9.4033333249      -32.6886428324  TIP3      5374            0.0000000000
     38443      5567  TIP3      OH2           -15.1031930123        9.7758662401      -30.8848541691  TIP3      5375            0.0000000000
     38444      5567  TIP3      H1            -15.0461055715        9.1816532900      -30.1102896213  TIP3      5375            0.0000000000
     38445      5567  TIP3      H2            -14.5156303385       10.5033614661      -30.6077902928  TIP3      5375            0.0000000000
     38446      5568  TIP3      OH2            -3.8910462243       13.0626653170      -33.7279737088  TIP3      5376            0.0000000000
     38447      5568  TIP3      H1             -4.1672663851       12.3729954898      -33.1051299880  TIP3      5376            0.0000000000
     38448      5568  TIP3      H2             -3.7714443729       13.8146893782      -33.1266321982  TIP3      5376            0.0000000000
     38449      5569  TIP3      OH2           -13.7748463598       14.7778756468      -32.8014992163  TIP3      5377            0.0000000000
     38450      5569  TIP3      H1            -14.1393115417       13.8798535040      -32.9243169619  TIP3      5377            0.0000000000
     38451      5569  TIP3      H2            -12.8226015344       14.5379697313      -32.8956386654  TIP3      5377            0.0000000000
     38452      5570  TIP3      OH2           -17.2476198997        7.6693122172      -36.7328069710  TIP3      5378            0.0000000000
     38453      5570  TIP3      H1            -17.4990547516        8.5896443462      -36.5561746333  TIP3      5378            0.0000000000
     38454      5570  TIP3      H2            -18.0387108203        7.3245054153      -37.1775195698  TIP3      5378            0.0000000000
     38455      5571  TIP3      OH2           -16.7139801759       10.1800086184      -34.2454644426  TIP3      5379            0.0000000000
     38456      5571  TIP3      H1            -16.3646123149        9.2631700107      -34.1075005107  TIP3      5379            0.0000000000
     38457      5571  TIP3      H2            -15.9059488004       10.7177371041      -34.3197902589  TIP3      5379            0.0000000000
     38458      5572  TIP3      OH2            -6.1474860689       18.4225488540      -33.8058650665  TIP3      5380            0.0000000000
     38459      5572  TIP3      H1             -5.3937863590       17.8617831730      -34.1062543267  TIP3      5380            0.0000000000
     38460      5572  TIP3      H2             -6.5868392540       17.8208448371      -33.1948366324  TIP3      5380            0.0000000000
     38461      5573  TIP3      OH2            -8.8904574804       12.8647501219      -31.4837382719  TIP3      5381            0.0000000000
     38462      5573  TIP3      H1             -8.6317937795       12.2754193281      -32.2036163922  TIP3      5381            0.0000000000
     38463      5573  TIP3      H2             -8.0131789231       13.0247050371      -31.0837562805  TIP3      5381            0.0000000000
     38464      5574  TIP3      OH2            -0.3992106856        4.0428586437      -31.1399655004  TIP3      5382            0.0000000000
     38465      5574  TIP3      H1             -0.2665573636        4.7075411871      -30.4294416904  TIP3      5382            0.0000000000
     38466      5574  TIP3      H2              0.3539240542        4.2484057056      -31.7044860066  TIP3      5382            0.0000000000
     38467      5575  TIP3      OH2            -5.2474962503        7.1899822061      -31.1921989502  TIP3      5383            0.0000000000
     38468      5575  TIP3      H1             -5.2459681383        6.2574355409      -30.8980290834  TIP3      5383            0.0000000000
     38469      5575  TIP3      H2             -5.3513549015        7.0404926727      -32.1520146084  TIP3      5383            0.0000000000
     38470      5576  TIP3      OH2           -12.4587998839        5.0145873829      -34.4778772103  TIP3      5384            0.0000000000
     38471      5576  TIP3      H1            -12.3232489240        5.8062566832      -35.0340141906  TIP3      5384            0.0000000000
     38472      5576  TIP3      H2            -12.8921205282        4.4261503888      -35.1279573955  TIP3      5384            0.0000000000
     38473      5577  TIP3      OH2            -4.7151778107        5.2129507992      -35.9538318531  TIP3      5385            0.0000000000
     38474      5577  TIP3      H1             -4.2563547239        5.0591029507      -35.0999982728  TIP3      5385            0.0000000000
     38475      5577  TIP3      H2             -4.2815271567        6.0276107931      -36.2384679756  TIP3      5385            0.0000000000
     38476      5578  TIP3      OH2           -15.8793051224        7.6961291885      -33.5658039569  TIP3      5386            0.0000000000
     38477      5578  TIP3      H1            -15.2973568677        7.3621461706      -32.8563062529  TIP3      5386            0.0000000000
     38478      5578  TIP3      H2            -15.5542075967        7.2024525430      -34.3557939099  TIP3      5386            0.0000000000
     38479      5579  TIP3      OH2           -11.1783209781        9.1506996234      -34.1572514149  TIP3      5387            0.0000000000
     38480      5579  TIP3      H1            -10.3410270973        8.7407118387      -33.8472158071  TIP3      5387            0.0000000000
     38481      5579  TIP3      H2            -11.4608587846        8.4809287575      -34.8133484792  TIP3      5387            0.0000000000
     38482      5580  TIP3      OH2            -0.0411041925        5.7348122307      -29.0231307161  TIP3      5388            0.0000000000
     38483      5580  TIP3      H1             -0.4924810101        6.5486183026      -29.3463219934  TIP3      5388            0.0000000000
     38484      5580  TIP3      H2              0.0682754188        5.9324338197      -28.0762201445  TIP3      5388            0.0000000000
     38485      5581  TIP3      OH2           -13.2276813833        4.1386771102      -30.1325769348  TIP3      5389            0.0000000000
     38486      5581  TIP3      H1            -13.6647706884        4.6292857529      -30.8617839101  TIP3      5389            0.0000000000
     38487      5581  TIP3      H2            -13.8506266210        4.3161739848      -29.4028223645  TIP3      5389            0.0000000000
     38488      5582  TIP3      OH2            -6.5620464753       13.5305044405      -36.7420840114  TIP3      5390            0.0000000000
     38489      5582  TIP3      H1             -6.7587674296       13.4994052622      -37.6954951097  TIP3      5390            0.0000000000
     38490      5582  TIP3      H2             -6.5924614356       14.4966658732      -36.5811589931  TIP3      5390            0.0000000000
     38491      5583  TIP3      OH2           -11.3054534454       11.7685532381      -30.4014208180  TIP3      5391            0.0000000000
     38492      5583  TIP3      H1            -11.8567227888       12.4869961521      -30.0269799180  TIP3      5391            0.0000000000
     38493      5583  TIP3      H2            -10.5561393749       12.2725457934      -30.7912540105  TIP3      5391            0.0000000000
     38494      5584  TIP3      OH2            -3.0798297098        4.8616684274      -33.7539094092  TIP3      5392            0.0000000000
     38495      5584  TIP3      H1             -3.3421102252        4.0191132427      -33.3586127443  TIP3      5392            0.0000000000
     38496      5584  TIP3      H2             -2.1183781373        4.7911251562      -33.6563815413  TIP3      5392            0.0000000000
     38497      5585  TIP3      OH2           -13.9486251263        6.0413924513      -32.2342053973  TIP3      5393            0.0000000000
     38498      5585  TIP3      H1            -13.3629862485        6.7148184662      -31.8161454222  TIP3      5393            0.0000000000
     38499      5585  TIP3      H2            -13.4511230159        5.8117268869      -33.0542645273  TIP3      5393            0.0000000000
     38500      5586  TIP3      OH2           -12.5204875462       13.9254048478      -29.2363946450  TIP3      5394            0.0000000000
     38501      5586  TIP3      H1            -12.6859900308       14.7027344026      -29.7947483399  TIP3      5394            0.0000000000
     38502      5586  TIP3      H2            -13.3935527141       13.8427453755      -28.7733001967  TIP3      5394            0.0000000000
     38503      5587  TIP3      OH2           -16.6011913316       13.3290698157      -38.3573159816  TIP3      5395            0.0000000000
     38504      5587  TIP3      H1            -16.7507494444       13.7786906833      -39.2171584324  TIP3      5395            0.0000000000
     38505      5587  TIP3      H2            -16.3922904607       14.1135836379      -37.7893341613  TIP3      5395            0.0000000000
     38506      5588  TIP3      OH2            -3.0260611473       15.1126616304      -31.5186816705  TIP3      5396            0.0000000000
     38507      5588  TIP3      H1             -3.9499115581       15.4063950523      -31.3435795159  TIP3      5396            0.0000000000
     38508      5588  TIP3      H2             -2.8130847649       15.7633487976      -32.2084982876  TIP3      5396            0.0000000000
     38509      5589  TIP3      OH2            -2.9139533563        3.7805440452      -30.4888234544  TIP3      5397            0.0000000000
     38510      5589  TIP3      H1             -3.3531799954        4.4863954523      -30.9893327619  TIP3      5397            0.0000000000
     38511      5589  TIP3      H2             -1.9759170078        3.9055138029      -30.7631698781  TIP3      5397            0.0000000000
     38512      5590  TIP3      OH2           -10.0458039178        1.6567779664      -32.9842470226  TIP3      5398            0.0000000000
     38513      5590  TIP3      H1            -10.2976306933        0.7347329736      -32.8396005729  TIP3      5398            0.0000000000
     38514      5590  TIP3      H2            -10.8630324316        2.1095570102      -32.6315871452  TIP3      5398            0.0000000000
     38515      5591  TIP3      OH2            -4.2281388473       16.6253059673      -34.5039750721  TIP3      5399            0.0000000000
     38516      5591  TIP3      H1             -4.6634152473       16.1941712665      -35.2662967257  TIP3      5399            0.0000000000
     38517      5591  TIP3      H2             -3.5837219459       17.1990092308      -34.9794220279  TIP3      5399            0.0000000000
     38518      5592  TIP3      OH2            -3.6622409208       14.7111213105      -36.6659465918  TIP3      5400            0.0000000000
     38519      5592  TIP3      H1             -3.8010321001       13.9877059329      -37.2933671006  TIP3      5400            0.0000000000
     38520      5592  TIP3      H2             -3.7118556286       14.2455783905      -35.8140614118  TIP3      5400            0.0000000000
     38521      5593  TIP3      OH2            -2.1199472316       13.3717648918      -27.8167373142  TIP3      5401            0.0000000000
     38522      5593  TIP3      H1             -2.0040145305       12.6007939083      -28.4194363605  TIP3      5401            0.0000000000
     38523      5593  TIP3      H2             -1.8344531993       14.0866824001      -28.4201485177  TIP3      5401            0.0000000000
     38524      5594  TIP3      OH2            -7.3993256484       10.2292974788      -38.3496479516  TIP3      5402            0.0000000000
     38525      5594  TIP3      H1             -8.0270960178       10.9825559270      -38.4603115347  TIP3      5402            0.0000000000
     38526      5594  TIP3      H2             -6.5465514177       10.6039112453      -38.6710987569  TIP3      5402            0.0000000000
     38527      5595  TIP3      OH2            -7.3587252213        9.3680569672      -41.0829253372  TIP3      5403            0.0000000000
     38528      5595  TIP3      H1             -6.9265206918        9.5967387396      -40.2328368110  TIP3      5403            0.0000000000
     38529      5595  TIP3      H2             -6.9631324573        8.5034393294      -41.2666625817  TIP3      5403            0.0000000000
     38530      5596  TIP3      OH2            -0.0404911508        9.9148478427      -29.9518225343  TIP3      5404            0.0000000000
     38531      5596  TIP3      H1             -0.8192892960       10.4648965469      -30.1811227554  TIP3      5404            0.0000000000
     38532      5596  TIP3      H2              0.6197730111       10.3624417637      -30.5291479277  TIP3      5404            0.0000000000
     38533      5597  TIP3      OH2            -3.4754402810       10.4407504567      -37.0471760090  TIP3      5405            0.0000000000
     38534      5597  TIP3      H1             -4.2297060212       10.7002715149      -36.4604877368  TIP3      5405            0.0000000000
     38535      5597  TIP3      H2             -2.9262050554        9.8931035039      -36.4437984781  TIP3      5405            0.0000000000
     38536      5598  TIP3      OH2            -3.9823723447        9.0079553717      -27.8896825653  TIP3      5406            0.0000000000
     38537      5598  TIP3      H1             -4.2533983962        9.9140934817      -27.6541316168  TIP3      5406            0.0000000000
     38538      5598  TIP3      H2             -4.6507659141        8.8063099096      -28.5627772404  TIP3      5406            0.0000000000
     38539      5599  TIP3      OH2           -12.5864241048       10.9243571305      -35.4977330558  TIP3      5407            0.0000000000
     38540      5599  TIP3      H1            -12.5926286161       10.5209958805      -36.3825843500  TIP3      5407            0.0000000000
     38541      5599  TIP3      H2            -11.9480685368       10.3488381234      -35.0259282699  TIP3      5407            0.0000000000
     38542      5600  TIP3      OH2           -11.0904111254       14.2777872055      -32.8874747725  TIP3      5408            0.0000000000
     38543      5600  TIP3      H1            -10.9270463639       14.3934596836      -33.8413944610  TIP3      5408            0.0000000000
     38544      5600  TIP3      H2            -10.2625429246       13.9033679055      -32.5324498617  TIP3      5408            0.0000000000
     38545      5601  TIP3      OH2           -12.1220653316        9.6405888077      -31.7045644549  TIP3      5409            0.0000000000
     38546      5601  TIP3      H1            -11.8311131351        9.7456642629      -32.6401940116  TIP3      5409            0.0000000000
     38547      5601  TIP3      H2            -11.7050124141       10.4017407961      -31.2417771977  TIP3      5409            0.0000000000
     38548      5602  TIP3      OH2            -5.6147023522       15.6586643783      -31.0690347960  TIP3      5410            0.0000000000
     38549      5602  TIP3      H1             -5.8740879840       16.2595225405      -30.3462544437  TIP3      5410            0.0000000000
     38550      5602  TIP3      H2             -5.7899626395       14.7918646746      -30.6569882929  TIP3      5410            0.0000000000
     38551      5603  TIP3      OH2           -10.8337543929       14.4031291077      -27.2046366217  TIP3      5411            0.0000000000
     38552      5603  TIP3      H1            -11.5315622256       14.9537549027      -26.7767888895  TIP3      5411            0.0000000000
     38553      5603  TIP3      H2            -11.3228727949       14.1526525629      -28.0204960842  TIP3      5411            0.0000000000
     38554      5604  TIP3      OH2            -4.9859133329       10.1080115228      -39.3123841221  TIP3      5412            0.0000000000
     38555      5604  TIP3      H1             -4.3367419158       10.2943821346      -38.5997577050  TIP3      5412            0.0000000000
     38556      5604  TIP3      H2             -4.5229659125       10.4196051927      -40.1212912754  TIP3      5412            0.0000000000
     38557      5605  TIP3      OH2           -14.4103256734       11.0010901794      -28.5550497015  TIP3      5413            0.0000000000
     38558      5605  TIP3      H1            -13.7732773568       11.5934851903      -28.1350579178  TIP3      5413            0.0000000000
     38559      5605  TIP3      H2            -14.6166438284       10.4155219949      -27.8081155704  TIP3      5413            0.0000000000
     38560      5606  TIP3      OH2            -6.7491809910       16.3993054903      -35.8248937622  TIP3      5414            0.0000000000
     38561      5606  TIP3      H1             -6.6292206366       16.8330657431      -34.9682242147  TIP3      5414            0.0000000000
     38562      5606  TIP3      H2             -7.6685285403       16.7059349060      -36.0067796813  TIP3      5414            0.0000000000
     38563      5607  TIP3      OH2           -12.8427006527       15.9528085118      -26.1724216019  TIP3      5415            0.0000000000
     38564      5607  TIP3      H1            -12.8673066393       16.2677072811      -27.1024919578  TIP3      5415            0.0000000000
     38565      5607  TIP3      H2            -13.8065910002       15.8083284834      -26.0099515861  TIP3      5415            0.0000000000
     38566      5608  TIP3      OH2            -1.0500194735        1.2432732934      -39.0885536403  TIP3      5416            0.0000000000
     38567      5608  TIP3      H1             -2.0295688376        1.3429386059      -38.9896177320  TIP3      5416            0.0000000000
     38568      5608  TIP3      H2             -0.8226065599        2.0747444235      -39.5421128514  TIP3      5416            0.0000000000
     38569      5609  TIP3      OH2           -13.4090655445        9.9189002211      -38.1892793939  TIP3      5417            0.0000000000
     38570      5609  TIP3      H1            -13.8581574555       10.7701551305      -38.4242709851  TIP3      5417            0.0000000000
     38571      5609  TIP3      H2            -14.1447603052        9.3046121978      -38.1088727047  TIP3      5417            0.0000000000
     38572      5610  TIP3      OH2            -0.2979961878       15.5714157166      -41.4969670670  TIP3      5418            0.0000000000
     38573      5610  TIP3      H1             -0.0259638135       16.4936494633      -41.3550471683  TIP3      5418            0.0000000000
     38574      5610  TIP3      H2              0.5739915012       15.1438366722      -41.4152185408  TIP3      5418            0.0000000000
     38575      5611  TIP3      OH2           -17.0013439708       12.7357014329      -28.7894913988  TIP3      5419            0.0000000000
     38576      5611  TIP3      H1            -17.3937327526       12.5955603591      -29.6617672272  TIP3      5419            0.0000000000
     38577      5611  TIP3      H2            -16.5755146784       11.8606551432      -28.6763442956  TIP3      5419            0.0000000000
     38578      5612  TIP3      OH2           -17.3169177994       15.3358487256      -32.2083181110  TIP3      5420            0.0000000000
     38579      5612  TIP3      H1            -16.3689648967       15.2801914479      -32.0229003658  TIP3      5420            0.0000000000
     38580      5612  TIP3      H2            -17.5392132612       16.1886098634      -31.8041538246  TIP3      5420            0.0000000000
     38581      5613  TIP3      OH2             0.6932412099       15.9636510682      -26.3797644355  TIP3      5421            0.0000000000
     38582      5613  TIP3      H1              0.4808486243       15.0229875451      -26.4731754931  TIP3      5421            0.0000000000
     38583      5613  TIP3      H2             -0.1640241527       16.2520611152      -25.9833605467  TIP3      5421            0.0000000000
     38584      5614  TIP3      OH2            -8.3068097103       15.4974939527      -27.6579809233  TIP3      5422            0.0000000000
     38585      5614  TIP3      H1             -8.2304471833       16.3952858086      -27.2541953241  TIP3      5422            0.0000000000
     38586      5614  TIP3      H2             -9.2489692494       15.2649055617      -27.5183482995  TIP3      5422            0.0000000000
     38587      5615  TIP3      OH2            -7.5826757354       19.3427255660      -38.0469843312  TIP3      5423            0.0000000000
     38588      5615  TIP3      H1             -7.9208817705       19.4771592095      -38.9522164758  TIP3      5423            0.0000000000
     38589      5615  TIP3      H2             -7.7483546655       20.2264293592      -37.6398095470  TIP3      5423            0.0000000000
     38590      5616  TIP3      OH2           -14.4929507013       18.2620629664      -35.5433988216  TIP3      5424            0.0000000000
     38591      5616  TIP3      H1            -14.0531762824       17.8907862332      -34.7396718893  TIP3      5424            0.0000000000
     38592      5616  TIP3      H2            -15.3725920732       17.8525688191      -35.5001761691  TIP3      5424            0.0000000000
     38593      5617  TIP3      OH2            -4.5689728024       18.6351797878      -40.7328258600  TIP3      5425            0.0000000000
     38594      5617  TIP3      H1             -4.1433430434       17.7882971276      -40.9665755139  TIP3      5425            0.0000000000
     38595      5617  TIP3      H2             -4.6999469660       18.5316754303      -39.7677925420  TIP3      5425            0.0000000000
     38596      5618  TIP3      OH2            -5.0268232809       18.5384656744      -38.0780463443  TIP3      5426            0.0000000000
     38597      5618  TIP3      H1             -5.9390410233       18.8220376471      -37.8473535761  TIP3      5426            0.0000000000
     38598      5618  TIP3      H2             -4.9983538365       17.7130699691      -37.5646276136  TIP3      5426            0.0000000000
     38599      5619  TIP3      OH2            -2.2244613339        7.4335634839      -26.0546722017  TIP3      5427            0.0000000000
     38600      5619  TIP3      H1             -2.8730744203        7.9868835510      -26.5354759824  TIP3      5427            0.0000000000
     38601      5619  TIP3      H2             -2.2806510456        6.5865160356      -26.5580074483  TIP3      5427            0.0000000000
     38602      5620  TIP3      OH2           -14.8023792960       14.0091261695      -27.9175101156  TIP3      5428            0.0000000000
     38603      5620  TIP3      H1            -14.6448306903       13.6336192969      -27.0174393386  TIP3      5428            0.0000000000
     38604      5620  TIP3      H2            -15.6938872135       13.6443363441      -28.0799162692  TIP3      5428            0.0000000000
     38605      5621  TIP3      OH2           -12.3142117800        2.5133413324      -32.0282762928  TIP3      5429            0.0000000000
     38606      5621  TIP3      H1            -13.2446861821        2.3963514647      -32.3081923357  TIP3      5429            0.0000000000
     38607      5621  TIP3      H2            -12.4287022416        3.1342409511      -31.2824985895  TIP3      5429            0.0000000000
     38608      5622  TIP3      OH2            -7.5032690777        1.7967251890      -28.5294407389  TIP3      5430            0.0000000000
     38609      5622  TIP3      H1             -7.2513420615        1.3277520138      -27.7046761246  TIP3      5430            0.0000000000
     38610      5622  TIP3      H2             -8.4862668279        1.8711127689      -28.4792242823  TIP3      5430            0.0000000000
     38611      5623  TIP3      OH2            -4.8379686698        6.2329572554      -27.4192335848  TIP3      5431            0.0000000000
     38612      5623  TIP3      H1             -5.3798750141        5.7661081674      -26.7371390842  TIP3      5431            0.0000000000
     38613      5623  TIP3      H2             -4.6536253828        7.0901277226      -27.0111669314  TIP3      5431            0.0000000000
     38614      5624  TIP3      OH2            -3.6999344973       10.9208788857      -41.4677453940  TIP3      5432            0.0000000000
     38615      5624  TIP3      H1             -3.6806254902       11.0321724259      -42.4296034922  TIP3      5432            0.0000000000
     38616      5624  TIP3      H2             -2.8865424500       11.4063068679      -41.2455547133  TIP3      5432            0.0000000000
     38617      5625  TIP3      OH2            -7.8063588125        5.0715877576      -41.2094843734  TIP3      5433            0.0000000000
     38618      5625  TIP3      H1             -8.2792435419        4.9754978902      -40.3625757824  TIP3      5433            0.0000000000
     38619      5625  TIP3      H2             -7.9789049739        4.2127978341      -41.6177462111  TIP3      5433            0.0000000000
     38620      5626  TIP3      OH2           -12.0765388728        7.2463223986      -30.7042208781  TIP3      5434            0.0000000000
     38621      5626  TIP3      H1            -12.7994462268        7.4315019829      -30.0656441760  TIP3      5434            0.0000000000
     38622      5626  TIP3      H2            -12.0576221456        8.1413091242      -31.1242758322  TIP3      5434            0.0000000000
     38623      5627  TIP3      OH2           -12.3028990451        7.2136521061      -36.0252155073  TIP3      5435            0.0000000000
     38624      5627  TIP3      H1            -13.2762179010        7.1414860982      -36.0544852558  TIP3      5435            0.0000000000
     38625      5627  TIP3      H2            -12.0548746311        6.9626376350      -36.9435959409  TIP3      5435            0.0000000000
     38626      5628  TIP3      OH2            -6.6321748519        8.0468562504      -37.0525968270  TIP3      5436            0.0000000000
     38627      5628  TIP3      H1             -6.9184763163        8.8931934542      -37.4806620302  TIP3      5436            0.0000000000
     38628      5628  TIP3      H2             -6.0151916327        7.7312889548      -37.7420618409  TIP3      5436            0.0000000000
     38629      5629  TIP3      OH2            -7.5333517033        8.3173028208      -25.7650692574  TIP3      5437            0.0000000000
     38630      5629  TIP3      H1             -8.0713508855        7.5466349826      -25.5259745803  TIP3      5437            0.0000000000
     38631      5629  TIP3      H2             -6.9719068037        8.3998631272      -24.9767099333  TIP3      5437            0.0000000000
     38632      5630  TIP3      OH2            -5.6029203262        7.7255696061      -34.0624457029  TIP3      5438            0.0000000000
     38633      5630  TIP3      H1             -5.7334614581        8.6140679400      -34.4364383486  TIP3      5438            0.0000000000
     38634      5630  TIP3      H2             -5.8287701068        7.1749482409      -34.8276285506  TIP3      5438            0.0000000000
     38635      5631  TIP3      OH2           -14.5794595128        7.3971273863      -29.3961536912  TIP3      5439            0.0000000000
     38636      5631  TIP3      H1            -14.1253586941        7.8919749209      -28.6874662868  TIP3      5439            0.0000000000
     38637      5631  TIP3      H2            -14.7659865913        6.5384649614      -28.9820432098  TIP3      5439            0.0000000000
     38638      5632  TIP3      OH2           -11.4580295018        5.2089187187      -41.6972312454  TIP3      5440            0.0000000000
     38639      5632  TIP3      H1            -11.7212517983        4.5625476531      -41.0139257608  TIP3      5440            0.0000000000
     38640      5632  TIP3      H2            -11.6712359676        6.0509777010      -41.2428068171  TIP3      5440            0.0000000000
     38641      5633  TIP3      OH2           -17.7912902316        4.6935688754      -34.8716711309  TIP3      5441            0.0000000000
     38642      5633  TIP3      H1            -17.1290907502        4.7495521452      -34.1626746383  TIP3      5441            0.0000000000
     38643      5633  TIP3      H2            -17.4042471756        5.2541299037      -35.5575979005  TIP3      5441            0.0000000000
     38644      5634  TIP3      OH2           -16.8287596206        5.2698533344      -39.8322261700  TIP3      5442            0.0000000000
     38645      5634  TIP3      H1            -16.2346052221        5.6899146441      -40.4837371111  TIP3      5442            0.0000000000
     38646      5634  TIP3      H2            -17.3042169500        6.0432945210      -39.4825986036  TIP3      5442            0.0000000000
     38647      5635  TIP3      OH2            -6.4612962580        9.1577141604      -29.8004028967  TIP3      5443            0.0000000000
     38648      5635  TIP3      H1             -5.9342264572        8.4060874124      -30.1599927614  TIP3      5443            0.0000000000
     38649      5635  TIP3      H2             -7.1541006951        8.6838385822      -29.2820835264  TIP3      5443            0.0000000000
     38650      5636  TIP3      OH2            -9.3177034825        4.8965322789      -34.8392653247  TIP3      5444            0.0000000000
     38651      5636  TIP3      H1            -10.2592929567        4.8870944304      -34.5921666120  TIP3      5444            0.0000000000
     38652      5636  TIP3      H2             -8.8698594530        4.4548340300      -34.0877608166  TIP3      5444            0.0000000000
     38653      5637  TIP3      OH2           -15.0231349395        6.4180612902      -35.8418865288  TIP3      5445            0.0000000000
     38654      5637  TIP3      H1            -15.7063874487        6.7747898983      -36.4548667701  TIP3      5445            0.0000000000
     38655      5637  TIP3      H2            -14.7400778759        5.5734427983      -36.2607739048  TIP3      5445            0.0000000000
     38656      5638  TIP3      OH2           -11.7450608089        6.5814282029      -38.5554730273  TIP3      5446            0.0000000000
     38657      5638  TIP3      H1            -10.8209496327        6.8181376686      -38.3889507399  TIP3      5446            0.0000000000
     38658      5638  TIP3      H2            -11.9425468267        7.1132898916      -39.3645855113  TIP3      5446            0.0000000000
     38659      5639  TIP3      OH2            -5.3613901876        4.4733670107      -31.6113879990  TIP3      5447            0.0000000000
     38660      5639  TIP3      H1             -5.7876916433        4.0489394211      -30.8453319730  TIP3      5447            0.0000000000
     38661      5639  TIP3      H2             -5.4994245614        3.8343089362      -32.3274367903  TIP3      5447            0.0000000000
     38662      5640  TIP3      OH2           -12.1230418477        7.6716962664      -40.9329264390  TIP3      5448            0.0000000000
     38663      5640  TIP3      H1            -12.7865518335        7.6567883163      -41.6414425904  TIP3      5448            0.0000000000
     38664      5640  TIP3      H2            -11.3745793523        8.1460581545      -41.3690646648  TIP3      5448            0.0000000000
     38665      5641  TIP3      OH2            -2.1984995567       19.9608311643      -25.0817280054  TIP3      5449            0.0000000000
     38666      5641  TIP3      H1             -1.7514648205       20.5726166737      -25.7027647328  TIP3      5449            0.0000000000
     38667      5641  TIP3      H2             -1.5561749614       19.9605122033      -24.3548182947  TIP3      5449            0.0000000000
     38668      5642  TIP3      OH2           -14.5831468661       12.5308372294      -25.5933888070  TIP3      5450            0.0000000000
     38669      5642  TIP3      H1            -13.9867768338       12.7137689076      -24.8237257920  TIP3      5450            0.0000000000
     38670      5642  TIP3      H2            -15.3455638803       12.1412360292      -25.1171952985  TIP3      5450            0.0000000000
     38671      5643  TIP3      OH2            -8.9681371083        7.6870541752      -33.3586346010  TIP3      5451            0.0000000000
     38672      5643  TIP3      H1             -8.0166643144        7.5178614026      -33.4867840564  TIP3      5451            0.0000000000
     38673      5643  TIP3      H2             -9.2840258301        6.8655300311      -32.9433849072  TIP3      5451            0.0000000000
     38674      5644  TIP3      OH2           -13.9667664308        3.9787649510      -36.5427574644  TIP3      5452            0.0000000000
     38675      5644  TIP3      H1            -14.4180907969        3.2599263199      -36.0398017357  TIP3      5452            0.0000000000
     38676      5644  TIP3      H2            -13.6268675032        3.4859995875      -37.3036023943  TIP3      5452            0.0000000000
     38677      5645  TIP3      OH2            -9.7544234440        5.8304463392      -30.8303317635  TIP3      5453            0.0000000000
     38678      5645  TIP3      H1            -10.6031111961        6.3163398763      -30.8311179691  TIP3      5453            0.0000000000
     38679      5645  TIP3      H2             -9.1834787234        6.4344985455      -30.3300558879  TIP3      5453            0.0000000000
     38680      5646  TIP3      OH2            -9.0847535450       12.2049127150      -38.4380172503  TIP3      5454            0.0000000000
     38681      5646  TIP3      H1             -9.7911323651       11.6615636382      -38.8596881136  TIP3      5454            0.0000000000
     38682      5646  TIP3      H2             -9.5918413019       12.5750753831      -37.6736765704  TIP3      5454            0.0000000000
     38683      5647  TIP3      OH2            -1.8890266794       11.9402522038      -29.9995095173  TIP3      5455            0.0000000000
     38684      5647  TIP3      H1             -1.3513178206       12.5410075824      -30.5736596365  TIP3      5455            0.0000000000
     38685      5647  TIP3      H2             -2.7280606238       11.9307294454      -30.4887694628  TIP3      5455            0.0000000000
     38686      5648  TIP3      OH2            -5.2251895946        5.1892293702      -40.5697636006  TIP3      5456            0.0000000000
     38687      5648  TIP3      H1             -6.0980548729        5.3147685262      -40.9874490826  TIP3      5456            0.0000000000
     38688      5648  TIP3      H2             -5.0657704080        6.0700302752      -40.1901520776  TIP3      5456            0.0000000000
     38689      5649  TIP3      OH2            -8.5172187183       12.5159583939      -27.4715562774  TIP3      5457            0.0000000000
     38690      5649  TIP3      H1             -8.6788627283       12.3641147078      -26.5178743621  TIP3      5457            0.0000000000
     38691      5649  TIP3      H2             -8.3992577727       13.4767813917      -27.4904417766  TIP3      5457            0.0000000000
     38692      5650  TIP3      OH2            -4.6317697170        7.3936609781      -38.8823872728  TIP3      5458            0.0000000000
     38693      5650  TIP3      H1             -3.9410966064        7.1223299594      -38.2475824721  TIP3      5458            0.0000000000
     38694      5650  TIP3      H2             -4.2998220315        8.2544028233      -39.1834982800  TIP3      5458            0.0000000000
     38695      5651  TIP3      OH2           -13.8633523609       11.9586419318      -33.1988750899  TIP3      5459            0.0000000000
     38696      5651  TIP3      H1            -13.5295839504       11.8657158439      -34.1137149654  TIP3      5459            0.0000000000
     38697      5651  TIP3      H2            -13.6160572433       11.1089839788      -32.8074247398  TIP3      5459            0.0000000000
     38698      5652  TIP3      OH2            -7.0701281286       13.6568779383      -39.5542710341  TIP3      5460            0.0000000000
     38699      5652  TIP3      H1             -7.4721295233       14.5450540400      -39.4073252085  TIP3      5460            0.0000000000
     38700      5652  TIP3      H2             -7.8123957927       13.0884925816      -39.2389990990  TIP3      5460            0.0000000000
     38701      5653  TIP3      OH2           -17.0989924301       10.0636387005      -27.3531792059  TIP3      5461            0.0000000000
     38702      5653  TIP3      H1            -17.4059411826        9.4159479789      -26.6893363375  TIP3      5461            0.0000000000
     38703      5653  TIP3      H2            -17.5114583061        9.7037440248      -28.1534916425  TIP3      5461            0.0000000000
     38704      5654  TIP3      OH2           -10.1586092403        9.9191969344      -25.9945163073  TIP3      5462            0.0000000000
     38705      5654  TIP3      H1            -10.3035543969        9.1816857683      -26.5849341449  TIP3      5462            0.0000000000
     38706      5654  TIP3      H2             -9.1880146946        9.9341905707      -25.9444921317  TIP3      5462            0.0000000000
     38707      5655  TIP3      OH2            -5.1662997305       15.2698502024      -27.4643021217  TIP3      5463            0.0000000000
     38708      5655  TIP3      H1             -5.9592050914       15.3976071271      -28.0075034874  TIP3      5463            0.0000000000
     38709      5655  TIP3      H2             -5.4829917447       15.6786723974      -26.6269063302  TIP3      5463            0.0000000000
     38710      5656  TIP3      OH2             0.2218277508        7.1686598796      -39.0762344408  TIP3      5464            0.0000000000
     38711      5656  TIP3      H1             -0.4152154286        7.0551006024      -39.8124295581  TIP3      5464            0.0000000000
     38712      5656  TIP3      H2              0.4421929597        8.1183989936      -39.1982765493  TIP3      5464            0.0000000000
     38713      5657  TIP3      OH2             0.3815527208       13.1359931263      -26.5197677719  TIP3      5465            0.0000000000
     38714      5657  TIP3      H1             -0.5031208088       13.2308150890      -26.9401694662  TIP3      5465            0.0000000000
     38715      5657  TIP3      H2              0.9639570206       13.1150836940      -27.3132598331  TIP3      5465            0.0000000000
     38716      5658  TIP3      OH2            -1.5075696489       15.8468158715      -38.9735745075  TIP3      5466            0.0000000000
     38717      5658  TIP3      H1             -2.3024381447       15.3843155980      -38.6645174418  TIP3      5466            0.0000000000
     38718      5658  TIP3      H2             -1.4444088974       15.6109887053      -39.9201379661  TIP3      5466            0.0000000000
     38719      5659  TIP3      OH2            -4.2898768092       11.0601389161      -31.7687318581  TIP3      5467            0.0000000000
     38720      5659  TIP3      H1             -5.1872787100       10.7275214027      -31.9376826118  TIP3      5467            0.0000000000
     38721      5659  TIP3      H2             -3.7717301331       10.3320380353      -32.1691042563  TIP3      5467            0.0000000000
     38722      5660  TIP3      OH2           -11.7233168435       15.3131153347      -35.4569589177  TIP3      5468            0.0000000000
     38723      5660  TIP3      H1            -10.9364384573       15.9067202037      -35.3855735910  TIP3      5468            0.0000000000
     38724      5660  TIP3      H2            -12.3150127980       15.9287101112      -35.9189870101  TIP3      5468            0.0000000000
     38725      5661  TIP3      OH2           -15.8143419410       10.0865304609      -41.2251706624  TIP3      5469            0.0000000000
     38726      5661  TIP3      H1            -15.3498706468       10.6091331668      -40.5421418666  TIP3      5469            0.0000000000
     38727      5661  TIP3      H2            -16.7529696797       10.2050077293      -40.9993355623  TIP3      5469            0.0000000000
     38728      5662  TIP3      OH2           -10.4665959730       12.9435884994      -36.2176280402  TIP3      5470            0.0000000000
     38729      5662  TIP3      H1            -10.9278839968       13.8095385372      -36.1190922904  TIP3      5470            0.0000000000
     38730      5662  TIP3      H2            -10.8935530931       12.3960293777      -35.5501970170  TIP3      5470            0.0000000000
     38731      5663  TIP3      OH2            -9.8026486636       17.0412286139      -29.2798465577  TIP3      5471            0.0000000000
     38732      5663  TIP3      H1             -9.2399144017       17.7391620361      -29.6799678711  TIP3      5471            0.0000000000
     38733      5663  TIP3      H2             -9.1638073933       16.6281652784      -28.6710104410  TIP3      5471            0.0000000000
     38734      5664  TIP3      OH2           -12.2431862649       18.5100134433      -37.0979775104  TIP3      5472            0.0000000000
     38735      5664  TIP3      H1            -12.9375984757       18.5485520660      -36.4114430005  TIP3      5472            0.0000000000
     38736      5664  TIP3      H2            -11.4541225647       18.1795004203      -36.6074433129  TIP3      5472            0.0000000000
     38737      5665  TIP3      OH2            -6.5489134282       12.9677660079      -30.0047564807  TIP3      5473            0.0000000000
     38738      5665  TIP3      H1             -7.0231132891       12.6263485227      -29.2240363122  TIP3      5473            0.0000000000
     38739      5665  TIP3      H2             -5.8321589466       12.3180694128      -30.1165977382  TIP3      5473            0.0000000000
     38740      5666  TIP3      OH2            -3.8911309553       14.2596514865      -40.6434666417  TIP3      5474            0.0000000000
     38741      5666  TIP3      H1             -3.5863471531       13.6324044908      -39.9533154056  TIP3      5474            0.0000000000
     38742      5666  TIP3      H2             -4.8436221069       14.0536351123      -40.6195624048  TIP3      5474            0.0000000000
     38743      5667  TIP3      OH2            -3.3619437914       17.4983236140      -27.6616568371  TIP3      5475            0.0000000000
     38744      5667  TIP3      H1             -4.2171182720       17.0247437460      -27.6810419724  TIP3      5475            0.0000000000
     38745      5667  TIP3      H2             -3.3930039850       18.0894678000      -28.4448137347  TIP3      5475            0.0000000000
     38746      5668  TIP3      OH2             0.4036379811       18.4432534049      -40.6622773708  TIP3      5476            0.0000000000
     38747      5668  TIP3      H1              0.8531887883       19.0542036816      -41.2685588469  TIP3      5476            0.0000000000
     38748      5668  TIP3      H2             -0.2338886096       19.0672871198      -40.2339884698  TIP3      5476            0.0000000000
     38749      5669  TIP3      OH2           -15.1676532250        4.9541788349      -28.2422229565  TIP3      5477            0.0000000000
     38750      5669  TIP3      H1            -15.9993628312        5.4504442854      -28.3272883041  TIP3      5477            0.0000000000
     38751      5669  TIP3      H2            -15.5065455595        4.0727665381      -28.0039185203  TIP3      5477            0.0000000000
     38752      5670  TIP3      OH2            -3.0741244224       12.5466492586      -38.6856816849  TIP3      5478            0.0000000000
     38753      5670  TIP3      H1             -3.2176466694       11.7504325835      -38.1233178161  TIP3      5478            0.0000000000
     38754      5670  TIP3      H2             -2.0939644608       12.5517682645      -38.6845495822  TIP3      5478            0.0000000000
     38755      5671  TIP3      OH2           -15.7070297679       16.6255738830      -29.8798484961  TIP3      5479            0.0000000000
     38756      5671  TIP3      H1            -15.0822798571       15.8959848994      -29.7868700271  TIP3      5479            0.0000000000
     38757      5671  TIP3      H2            -15.6870375857       16.9807845049      -28.9837654224  TIP3      5479            0.0000000000
     38758      5672  TIP3      OH2           -10.9930754892       15.0313403129      -39.5708504079  TIP3      5480            0.0000000000
     38759      5672  TIP3      H1            -10.1896655407       15.0180920129      -39.0284198841  TIP3      5480            0.0000000000
     38760      5672  TIP3      H2            -11.1860583573       16.0006555505      -39.5430366421  TIP3      5480            0.0000000000
     38761      5673  TIP3      OH2           -14.6111978052       11.9448005230      -39.4558559357  TIP3      5481            0.0000000000
     38762      5673  TIP3      H1            -15.2967924516       12.3782621345      -38.8895569176  TIP3      5481            0.0000000000
     38763      5673  TIP3      H2            -14.2510091668       12.7159041312      -39.9261076807  TIP3      5481            0.0000000000
     38764      5674  TIP3      OH2            -6.6372530759        4.3177292544      -28.9511532221  TIP3      5482            0.0000000000
     38765      5674  TIP3      H1             -6.0652086004        4.5717993183      -28.2125432184  TIP3      5482            0.0000000000
     38766      5674  TIP3      H2             -6.9463166145        3.4293288472      -28.6502727421  TIP3      5482            0.0000000000
     38767      5675  TIP3      OH2            -6.1461723368        4.3691902671      -37.9966613946  TIP3      5483            0.0000000000
     38768      5675  TIP3      H1             -5.6845573138        4.6665929984      -38.7991457753  TIP3      5483            0.0000000000
     38769      5675  TIP3      H2             -5.4725633040        4.5383081489      -37.2943198168  TIP3      5483            0.0000000000
     38770      5676  TIP3      OH2            -7.9744561270       16.1419083716      -38.9513610079  TIP3      5484            0.0000000000
     38771      5676  TIP3      H1             -8.1329764041       16.8463580914      -38.2993818417  TIP3      5484            0.0000000000
     38772      5676  TIP3      H2             -7.5902430543       16.6454928763      -39.6944634384  TIP3      5484            0.0000000000
     38773      5677  TIP3      OH2            -8.9099416789        6.2372316434      -37.2682480140  TIP3      5485            0.0000000000
     38774      5677  TIP3      H1             -8.1158276091        6.8053186305      -37.1905330587  TIP3      5485            0.0000000000
     38775      5677  TIP3      H2             -8.9629390382        5.7589080065      -36.4131133271  TIP3      5485            0.0000000000
     38776      5678  TIP3      OH2            -7.6657053576        7.1780372703      -28.4503522700  TIP3      5486            0.0000000000
     38777      5678  TIP3      H1             -7.3521098964        7.3893979074      -27.5492992366  TIP3      5486            0.0000000000
     38778      5678  TIP3      H2             -7.1844292584        6.3474934886      -28.6328633399  TIP3      5486            0.0000000000
     38779      5679  TIP3      OH2            -8.0479868578        2.9457683179      -36.7350382886  TIP3      5487            0.0000000000
     38780      5679  TIP3      H1             -8.4146699415        3.5141017410      -36.0215043137  TIP3      5487            0.0000000000
     38781      5679  TIP3      H2             -7.2902795308        3.5119158651      -37.0478074564  TIP3      5487            0.0000000000
     38782      5680  TIP3      OH2           -11.4317369037       17.6821192848      -39.5842811749  TIP3      5488            0.0000000000
     38783      5680  TIP3      H1            -10.6910679504       18.2853600052      -39.6974175476  TIP3      5488            0.0000000000
     38784      5680  TIP3      H2            -11.8454375977       18.0825793267      -38.7775830528  TIP3      5488            0.0000000000
     38785      5681  TIP3      OH2           -12.3921618726        4.0885053871      -39.4137788893  TIP3      5489            0.0000000000
     38786      5681  TIP3      H1            -12.4163949122        4.9404258009      -38.9265104371  TIP3      5489            0.0000000000
     38787      5681  TIP3      H2            -11.5265424803        3.7473269863      -39.1274454026  TIP3      5489            0.0000000000
     38788      5682  TIP3      OH2            -2.3525642180        5.0598588865      -27.2385403410  TIP3      5490            0.0000000000
     38789      5682  TIP3      H1             -3.3000891615        5.1335227038      -27.4732649425  TIP3      5490            0.0000000000
     38790      5682  TIP3      H2             -1.9656462173        4.6802324607      -28.0421318071  TIP3      5490            0.0000000000
     38791      5683  TIP3      OH2            -3.1710450173        8.7243001794      -33.1879206484  TIP3      5491            0.0000000000
     38792      5683  TIP3      H1             -3.9642610447        8.1580452328      -33.2077055558  TIP3      5491            0.0000000000
     38793      5683  TIP3      H2             -2.5111266792        8.1297886084      -32.7673627312  TIP3      5491            0.0000000000
     38794      5684  TIP3      OH2           -13.8873691808       14.3680718782      -40.9508172975  TIP3      5492            0.0000000000
     38795      5684  TIP3      H1            -13.2325656821       14.8595278717      -40.4350251542  TIP3      5492            0.0000000000
     38796      5684  TIP3      H2            -13.3012370345       13.8769949525      -41.5564558452  TIP3      5492            0.0000000000
     38797      5685  TIP3      OH2           -15.5361733215        7.3913376840      -41.5613247559  TIP3      5493            0.0000000000
     38798      5685  TIP3      H1            -15.4629374100        8.3515323001      -41.3865308370  TIP3      5493            0.0000000000
     38799      5685  TIP3      H2            -16.2696993135        7.3931195037      -42.1890618058  TIP3      5493            0.0000000000
     38800      5686  TIP3      OH2            -2.5637090858       17.8939642991      -31.7006734954  TIP3      5494            0.0000000000
     38801      5686  TIP3      H1             -2.3504626001       18.5666272059      -32.3786761137  TIP3      5494            0.0000000000
     38802      5686  TIP3      H2             -1.6923128617       17.5634112957      -31.4517140425  TIP3      5494            0.0000000000
     38803      5687  TIP3      OH2           -14.8607173434        2.0279464840      -32.6510793358  TIP3      5495            0.0000000000
     38804      5687  TIP3      H1            -14.9212707819        1.9594286706      -33.6294518602  TIP3      5495            0.0000000000
     38805      5687  TIP3      H2            -15.1786495017        1.1263442529      -32.4057295513  TIP3      5495            0.0000000000
     38806      5688  TIP3      OH2           -16.4522793790       15.6695354901      -37.1766536768  TIP3      5496            0.0000000000
     38807      5688  TIP3      H1            -17.0627587602       16.0946592828      -36.5712525112  TIP3      5496            0.0000000000
     38808      5688  TIP3      H2            -16.2050335168       16.4330069551      -37.7516679096  TIP3      5496            0.0000000000
     38809      5689  TIP3      OH2           -16.8355820569       18.4374995942      -25.6141071150  TIP3      5497            0.0000000000
     38810      5689  TIP3      H1            -17.4336349961       18.3846172878      -24.8476012740  TIP3      5497            0.0000000000
     38811      5689  TIP3      H2            -17.0742003964       17.6183260599      -26.0865655507  TIP3      5497            0.0000000000
     38812      5690  TIP3      OH2           -12.4211500368       17.8795456738      -23.9851711314  TIP3      5498            0.0000000000
     38813      5690  TIP3      H1            -11.4964051447       17.9237469665      -24.2599481100  TIP3      5498            0.0000000000
     38814      5690  TIP3      H2            -12.7671454253       17.2240690805      -24.6332117936  TIP3      5498            0.0000000000
     38815      5691  TIP3      OH2            -6.8535761204       16.9629449575      -41.3427757607  TIP3      5499            0.0000000000
     38816      5691  TIP3      H1             -7.4876164020       16.2967854577      -41.6694155637  TIP3      5499            0.0000000000
     38817      5691  TIP3      H2             -6.5801143153       17.3840019457      -42.1761453737  TIP3      5499            0.0000000000
     38818      5692  TIP3      OH2            -5.6727297033       16.1860004640      -25.0104197959  TIP3      5500            0.0000000000
     38819      5692  TIP3      H1             -5.9319615072       15.3053127974      -24.6543955777  TIP3      5500            0.0000000000
     38820      5692  TIP3      H2             -4.7926708295       16.2675787390      -24.5781706690  TIP3      5500            0.0000000000
     38821      5693  TIP3      OH2            -2.8383779461       16.7708229366      -42.1914556087  TIP3      5501            0.0000000000
     38822      5693  TIP3      H1             -3.2653594141       16.0007861030      -41.7708282903  TIP3      5501            0.0000000000
     38823      5693  TIP3      H2             -1.9172820726       16.5989612083      -41.9037102558  TIP3      5501            0.0000000000
     38824      5694  TIP3      OH2           -17.1210968026       12.0459533990      -24.6196004866  TIP3      5502            0.0000000000
     38825      5694  TIP3      H1            -17.1912692883       11.0811895643      -24.6770687455  TIP3      5502            0.0000000000
     38826      5694  TIP3      H2            -17.7616786203       12.3235500246      -25.3167905823  TIP3      5502            0.0000000000
     38827      5695  TIP3      OH2           -11.7936012447       12.7125982522      -42.0649239863  TIP3      5503            0.0000000000
     38828      5695  TIP3      H1            -11.3056862066       12.5923558713      -41.2289589762  TIP3      5503            0.0000000000
     38829      5695  TIP3      H2            -11.3939659330       12.0001226115      -42.6129462343  TIP3      5503            0.0000000000
     38830      5696  TIP3      OH2           -10.1806189471       12.6229177777      -25.2330545067  TIP3      5504            0.0000000000
     38831      5696  TIP3      H1            -10.2894206183       13.0967162920      -26.0843736139  TIP3      5504            0.0000000000
     38832      5696  TIP3      H2            -10.6471145683       11.7739026226      -25.4026280432  TIP3      5504            0.0000000000
     38833      5697  TIP3      OH2            -4.6058141534       12.2299114496      -27.4075913436  TIP3      5505            0.0000000000
     38834      5697  TIP3      H1             -3.7412177449       12.6959608870      -27.4382085186  TIP3      5505            0.0000000000
     38835      5697  TIP3      H2             -5.1604709101       13.0266782520      -27.3220730866  TIP3      5505            0.0000000000
     38836      5698  TIP3      OH2           -15.3828177315        9.4939255870      -24.3362049953  TIP3      5506            0.0000000000
     38837      5698  TIP3      H1            -14.7924888530        8.7324735044      -24.2054687560  TIP3      5506            0.0000000000
     38838      5698  TIP3      H2            -14.8307288033       10.1943700849      -23.9395695269  TIP3      5506            0.0000000000
     38839      5699  TIP3      OH2           -11.0739323736       10.9560547120      -39.8585312503  TIP3      5507            0.0000000000
     38840      5699  TIP3      H1            -11.7942125858       10.4709249035      -39.4034843765  TIP3      5507            0.0000000000
     38841      5699  TIP3      H2            -10.7705881733       10.2961484661      -40.5010295657  TIP3      5507            0.0000000000
     38842      5700  TIP3      OH2           -12.4163283845        8.6845213588      -28.3738807865  TIP3      5508            0.0000000000
     38843      5700  TIP3      H1            -12.2697492372        9.0810590724      -27.5032709673  TIP3      5508            0.0000000000
     38844      5700  TIP3      H2            -11.6244281396        8.9915670789      -28.8583463044  TIP3      5508            0.0000000000
     38845      5701  TIP3      OH2            -9.9653703341        8.9762997156      -41.9610401777  TIP3      5509            0.0000000000
     38846      5701  TIP3      H1             -9.7158661534        9.2214446886      -42.8687105478  TIP3      5509            0.0000000000
     38847      5701  TIP3      H2             -9.0924936104        9.0559094077      -41.4978477345  TIP3      5509            0.0000000000
     38848      5702  TIP3      OH2            -6.6641907813       11.2590906394      -24.1846304611  TIP3      5510            0.0000000000
     38849      5702  TIP3      H1             -5.8261556053       10.8154023311      -24.3962430820  TIP3      5510            0.0000000000
     38850      5702  TIP3      H2             -7.0821853984       10.5795487906      -23.6164189648  TIP3      5510            0.0000000000
     38851      5703  TIP3      OH2            -1.0742243715       11.8777423301       42.5738878397  TIP3      5511            0.0000000000
     38852      5703  TIP3      H1             -1.4053872120       12.1119192053       41.6955500585  TIP3      5511            0.0000000000
     38853      5703  TIP3      H2             -0.7438503504       12.7219954157       42.9028450231  TIP3      5511            0.0000000000
     38854      5704  TIP3      OH2           -11.0167806071        6.4070246818      -27.0217533956  TIP3      5512            0.0000000000
     38855      5704  TIP3      H1            -10.8923830176        5.6406474424      -27.6278042054  TIP3      5512            0.0000000000
     38856      5704  TIP3      H2            -11.3355027441        7.0724565060      -27.6479400856  TIP3      5512            0.0000000000
     38857      5705  TIP3      OH2           -10.8277651095        4.3787285392      -28.8644422257  TIP3      5513            0.0000000000
     38858      5705  TIP3      H1            -10.3031301444        4.7602691474      -29.6097561849  TIP3      5513            0.0000000000
     38859      5705  TIP3      H2            -11.7274269023        4.3582452520      -29.2544343976  TIP3      5513            0.0000000000
     38860      5706  TIP3      OH2            -9.9160186362       10.0941053076      -28.9102428136  TIP3      5514            0.0000000000
     38861      5706  TIP3      H1             -9.1011931648       10.6216011804      -28.9705584866  TIP3      5514            0.0000000000
     38862      5706  TIP3      H2            -10.5407662458       10.7468525691      -29.2874326496  TIP3      5514            0.0000000000
     38863      5707  TIP3      OH2            -5.2055598212        7.2213685083      -23.8525294107  TIP3      5515            0.0000000000
     38864      5707  TIP3      H1             -4.7407854537        6.3711868922      -23.9101294089  TIP3      5515            0.0000000000
     38865      5707  TIP3      H2             -4.4842913457        7.8163517794      -23.5875158499  TIP3      5515            0.0000000000
     38866      5708  TIP3      OH2            -3.7602041023       10.5515461076      -25.2752610966  TIP3      5516            0.0000000000
     38867      5708  TIP3      H1             -4.1356759302       11.0677325179      -26.0148194966  TIP3      5516            0.0000000000
     38868      5708  TIP3      H2             -2.8166874040       10.5444484259      -25.5265441066  TIP3      5516            0.0000000000
     38869      5709  TIP3      OH2           -13.4181726673        7.1727183052      -24.8608683528  TIP3      5517            0.0000000000
     38870      5709  TIP3      H1            -13.9475635487        6.3728349271      -24.7077331475  TIP3      5517            0.0000000000
     38871      5709  TIP3      H2            -12.6304158403        6.8125325767      -25.2843537610  TIP3      5517            0.0000000000
     38872      5710  TIP3      OH2           -10.1587050208        1.7439698587      -28.9370676931  TIP3      5518            0.0000000000
     38873      5710  TIP3      H1            -10.5082941433        2.6572090850      -28.8804551186  TIP3      5518            0.0000000000
     38874      5710  TIP3      H2            -10.9417948173        1.2579859283      -29.2455262748  TIP3      5518            0.0000000000
     38875      5711  TIP3      OH2            -9.2449543626        6.1148378760      -24.9561451476  TIP3      5519            0.0000000000
     38876      5711  TIP3      H1             -9.7984565151        6.8489733506      -24.6334297684  TIP3      5519            0.0000000000
     38877      5711  TIP3      H2             -9.7142562070        5.8832542259      -25.7911934386  TIP3      5519            0.0000000000
     38878      5712  TIP3      OH2            -6.4416415252        5.1116509883      -25.6480918829  TIP3      5520            0.0000000000
     38879      5712  TIP3      H1             -7.2638953870        4.9209257282      -25.1708185012  TIP3      5520            0.0000000000
     38880      5712  TIP3      H2             -5.8183907016        4.7642455129      -24.9734163070  TIP3      5520            0.0000000000
     38881      5713  TIP3      OH2            -4.8976099305        3.7885920993      -23.7899894186  TIP3      5521            0.0000000000
     38882      5713  TIP3      H1             -5.1512614422        2.8404842878      -23.8787394533  TIP3      5521            0.0000000000
     38883      5713  TIP3      H2             -4.8845982956        3.8829081086      -22.8328177210  TIP3      5521            0.0000000000
     38884      5714  TIP3      OH2           -14.9868215692        4.7033553822      -24.6831945656  TIP3      5522            0.0000000000
     38885      5714  TIP3      H1            -14.4465845583        4.5703256343      -25.4774663848  TIP3      5522            0.0000000000
     38886      5714  TIP3      H2            -15.5829215125        3.9383727265      -24.7729470325  TIP3      5522            0.0000000000
     38887      5715  TIP3      OH2           -10.6196577010        0.7675264236      -25.9353945531  TIP3      5523            0.0000000000
     38888      5715  TIP3      H1             -9.8660357091        0.2509452021      -25.6135017555  TIP3      5523            0.0000000000
     38889      5715  TIP3      H2            -10.3592129327        0.9696055243      -26.8444514541  TIP3      5523            0.0000000000
     38890      5716  TIP3      OH2           -10.2792384942       20.3102065834      -40.7423914041  TIP3      5524            0.0000000000
     38891      5716  TIP3      H1             -9.3178115314       20.3269072768      -40.5915187898  TIP3      5524            0.0000000000
     38892      5716  TIP3      H2            -10.3252771660       19.9739516788      -41.6601936532  TIP3      5524            0.0000000000
     38893      5717  TIP3      OH2           -16.7008117449       14.0347569957      -41.0626480092  TIP3      5525            0.0000000000
     38894      5717  TIP3      H1            -15.7318688489       14.2192802498      -41.0724900648  TIP3      5525            0.0000000000
     38895      5717  TIP3      H2            -16.8173059223       13.7295432734      -41.9744512312  TIP3      5525            0.0000000000
     38896      5718  TIP3      OH2           -18.0814640086       19.5129017770      -36.1555052025  TIP3      5526            0.0000000000
     38897      5718  TIP3      H1            -18.7618034783       18.9072816928      -36.5322902087  TIP3      5526            0.0000000000
     38898      5718  TIP3      H2            -17.5787685369       18.8797441185      -35.6156807209  TIP3      5526            0.0000000000
     38899      5719  TIP3      OH2           -17.0150106560       17.7041778787      -34.2520441864  TIP3      5527            0.0000000000
     38900      5719  TIP3      H1            -17.5461521536       17.0685637287      -33.7452434253  TIP3      5527            0.0000000000
     38901      5719  TIP3      H2            -16.4478336883       18.0348538792      -33.5181120740  TIP3      5527            0.0000000000
     38902      5720  TIP3      OH2             0.6758121240       18.4303228196      -31.6460846521  TIP3      5528            0.0000000000
     38903      5720  TIP3      H1              0.6362112546       18.5153975409      -30.6850315597  TIP3      5528            0.0000000000
     38904      5720  TIP3      H2              1.0448552850       19.2936857574      -31.8852099900  TIP3      5528            0.0000000000
     38905      5721  TIP3      OH2            -0.0355614538       18.0485331528      -28.4935955447  TIP3      5529            0.0000000000
     38906      5721  TIP3      H1             -0.3761041408       17.2744172542      -28.9912358244  TIP3      5529            0.0000000000
     38907      5721  TIP3      H2              0.2445514095       17.6092416317      -27.6673086732  TIP3      5529            0.0000000000
     38908      5722  TIP3      OH2            -1.2766821854       13.8318076678      -23.5958375880  TIP3      5530            0.0000000000
     38909      5722  TIP3      H1             -2.1016395436       13.9379304835      -23.0936851200  TIP3      5530            0.0000000000
     38910      5722  TIP3      H2             -0.7319625215       14.5549853164      -23.2038238166  TIP3      5530            0.0000000000
     38911      5723  TIP3      OH2            -0.3559680258       12.2328311119      -38.5268265508  TIP3      5531            0.0000000000
     38912      5723  TIP3      H1              0.4710954926       12.7579777771      -38.4324939220  TIP3      5531            0.0000000000
     38913      5723  TIP3      H2             -0.2674234005       11.6225557261      -37.7660628034  TIP3      5531            0.0000000000
     38914      5724  TIP3      OH2             0.2135100847       10.2630543985      -36.6204416339  TIP3      5532            0.0000000000
     38915      5724  TIP3      H1             -0.6389336544        9.9012020262      -36.2692940975  TIP3      5532            0.0000000000
     38916      5724  TIP3      H2              0.7070305709       10.4129656971      -35.7893739082  TIP3      5532            0.0000000000
     38917      5725  TIP3      OH2            -0.2469931677       13.0866105095      -31.6442606189  TIP3      5533            0.0000000000
     38918      5725  TIP3      H1              0.4279580172       12.4209425051      -31.8885714301  TIP3      5533            0.0000000000
     38919      5725  TIP3      H2              0.2324345713       13.9368140335      -31.7570204130  TIP3      5533            0.0000000000
     38920      5726  TIP3      OH2            -1.4837886493       15.7775281466      -29.2847123344  TIP3      5534            0.0000000000
     38921      5726  TIP3      H1             -2.1684589762       16.1217761101      -28.6821012491  TIP3      5534            0.0000000000
     38922      5726  TIP3      H2             -2.0040206355       15.5391119365      -30.0857515285  TIP3      5534            0.0000000000
     38923      5727  TIP3      OH2             0.2187484573        9.8876275953      -40.0279523668  TIP3      5535            0.0000000000
     38924      5727  TIP3      H1             -0.4065863190        9.8362780517      -40.7692445085  TIP3      5535            0.0000000000
     38925      5727  TIP3      H2             -0.1205549114       10.6635939395      -39.5336538421  TIP3      5535            0.0000000000
     38926      5728  TIP3      OH2            -1.8680372088        7.2182315687      -41.3470595226  TIP3      5536            0.0000000000
     38927      5728  TIP3      H1             -1.1586846564        7.5784462820      -41.9079030131  TIP3      5536            0.0000000000
     38928      5728  TIP3      H2             -1.8285922763        6.2932943436      -41.6815358457  TIP3      5536            0.0000000000
     38929      5729  TIP3      OH2            -1.7878350385        8.8451556059      -35.5919406776  TIP3      5537            0.0000000000
     38930      5729  TIP3      H1             -2.1053649818        7.9683490771      -35.8702010074  TIP3      5537            0.0000000000
     38931      5729  TIP3      H2             -2.1076701916        8.8736465358      -34.6674106133  TIP3      5537            0.0000000000
     38932      5730  TIP3      OH2           -17.1514167808       11.0811016245      -31.7261577649  TIP3      5538            0.0000000000
     38933      5730  TIP3      H1            -17.1853691411       10.7111842552      -32.6402763692  TIP3      5538            0.0000000000
     38934      5730  TIP3      H2            -16.2788872137       10.7104268024      -31.4575023218  TIP3      5538            0.0000000000
     38935      5731  TIP3      OH2            -0.9867421242       10.7825807356      -26.0578407027  TIP3      5539            0.0000000000
     38936      5731  TIP3      H1             -0.4536193403        9.9578467737      -26.0885503308  TIP3      5539            0.0000000000
     38937      5731  TIP3      H2             -0.3356143007       11.4682836994      -26.3181694484  TIP3      5539            0.0000000000
     38938      5732  TIP3      OH2             0.3102023537        8.3270139792      -25.7528885645  TIP3      5540            0.0000000000
     38939      5732  TIP3      H1             -0.6362141984        8.0660249025      -25.7147648459  TIP3      5540            0.0000000000
     38940      5732  TIP3      H2              0.7780315518        7.4622331677      -25.6677542958  TIP3      5540            0.0000000000
     38941      5733  TIP3      OH2            -1.9735878383        4.8319143179      -42.6069397845  TIP3      5541            0.0000000000
     38942      5733  TIP3      H1             -1.4406802182        4.2023289034      -42.0818106268  TIP3      5541            0.0000000000
     38943      5733  TIP3      H2             -2.8903827596        4.7144221486      -42.3063514568  TIP3      5541            0.0000000000
     38944      5734  TIP3      OH2            -2.5874520842        6.4843695692      -37.3827334050  TIP3      5542            0.0000000000
     38945      5734  TIP3      H1             -2.3648505964        5.5667392434      -37.1190787411  TIP3      5542            0.0000000000
     38946      5734  TIP3      H2             -2.1674430061        6.4702987882      -38.2545182442  TIP3      5542            0.0000000000
     38947      5735  TIP3      OH2            -1.3394568768        7.0591231216      -32.0145257762  TIP3      5543            0.0000000000
     38948      5735  TIP3      H1             -0.3604760375        7.1239049117      -31.9245519646  TIP3      5543            0.0000000000
     38949      5735  TIP3      H2             -1.5895272748        7.3046115672      -31.1066963900  TIP3      5543            0.0000000000
     38950      5736  TIP3      OH2            -1.8017025143        7.7334832037      -29.4548063155  TIP3      5544            0.0000000000
     38951      5736  TIP3      H1             -2.6861234258        8.0179187175      -29.1523737651  TIP3      5544            0.0000000000
     38952      5736  TIP3      H2             -1.2796624879        8.5588461886      -29.4146101140  TIP3      5544            0.0000000000
     38953      5737  TIP3      OH2           -17.3016326297        5.8757575794      -25.8474547177  TIP3      5545            0.0000000000
     38954      5737  TIP3      H1            -16.4628944975        5.4314432143      -25.6379754133  TIP3      5545            0.0000000000
     38955      5737  TIP3      H2            -17.9726646932        5.1996125876      -25.6250950459  TIP3      5545            0.0000000000
     38956      5738  TIP3      OH2             0.1170678760        1.9106216182      -24.4795059831  TIP3      5546            0.0000000000
     38957      5738  TIP3      H1              0.6463841425        1.2301983438      -24.9329738736  TIP3      5546            0.0000000000
     38958      5738  TIP3      H2              0.3740377167        2.7473639938      -24.9196673203  TIP3      5546            0.0000000000
     38959      5739  TIP3      OH2            -1.8589188612        3.7461234404      -37.3045492805  TIP3      5547            0.0000000000
     38960      5739  TIP3      H1             -1.4813341409        3.4052319396      -36.4658616325  TIP3      5547            0.0000000000
     38961      5739  TIP3      H2             -2.3697792806        2.9757929395      -37.6212969191  TIP3      5547            0.0000000000
     38962      5740  TIP3      OH2           -16.1669002484        4.4376693328      -32.3661862773  TIP3      5548            0.0000000000
     38963      5740  TIP3      H1            -15.8186550044        3.5255810531      -32.4377029929  TIP3      5548            0.0000000000
     38964      5740  TIP3      H2            -15.3493442295        4.9809351208      -32.3074049862  TIP3      5548            0.0000000000
     38965      5741  TIP3      OH2           -17.7418221177        7.6006125834      -31.7236075326  TIP3      5549            0.0000000000
     38966      5741  TIP3      H1            -17.2269220657        7.2706907986      -32.4836096058  TIP3      5549            0.0000000000
     38967      5741  TIP3      H2            -17.1551064995        8.3136198733      -31.4248674497  TIP3      5549            0.0000000000
     38968      5742  TIP3      OH2            -0.2117958590        4.0576118268      -26.0394033105  TIP3      5550            0.0000000000
     38969      5742  TIP3      H1             -1.1132563627        4.4336002487      -26.0624929782  TIP3      5550            0.0000000000
     38970      5742  TIP3      H2             -0.2959732153        3.3933188295      -26.7458317122  TIP3      5550            0.0000000000
     38971      5743  TIP3      OH2             0.1508362411        3.9472079104      -40.8648851489  TIP3      5551            0.0000000000
     38972      5743  TIP3      H1              0.6087684715        3.3000465352      -41.4311908643  TIP3      5551            0.0000000000
     38973      5743  TIP3      H2              0.8885902831        4.5591255381      -40.6352220119  TIP3      5551            0.0000000000
     38974      5744  TIP3      OH2           -17.5363513941        3.5823453281      -37.8341275500  TIP3      5552            0.0000000000
     38975      5744  TIP3      H1            -18.4461980870        3.7332559160      -37.5464832582  TIP3      5552            0.0000000000
     38976      5744  TIP3      H2            -17.4988873970        4.0253544732      -38.7017707827  TIP3      5552            0.0000000000
     38977      5745  TIP3      OH2            -2.9142754175       18.6074498405      -35.6638150542  TIP3      5553            0.0000000000
     38978      5745  TIP3      H1             -2.1813097330       18.4970371531      -36.2988459456  TIP3      5553            0.0000000000
     38979      5745  TIP3      H2             -2.6206058887       19.3434735167      -35.0964704819  TIP3      5553            0.0000000000
     38980      5746  TIP3      OH2           -17.7229660791        2.2929300162      -29.4499968758  TIP3      5554            0.0000000000
     38981      5746  TIP3      H1            -18.4162171090        1.8694754439      -28.9136987053  TIP3      5554            0.0000000000
     38982      5746  TIP3      H2            -18.2319517444        2.8944746008      -30.0338662776  TIP3      5554            0.0000000000
     38983      5747  TIP3      OH2           -15.3274082697       15.4072210442      -25.2563778995  TIP3      5555            0.0000000000
     38984      5747  TIP3      H1            -16.1550096125       15.7816776083      -25.5836738796  TIP3      5555            0.0000000000
     38985      5747  TIP3      H2            -15.6229990951       14.7375560120      -24.6243915618  TIP3      5555            0.0000000000
     38986      5748  TIP3      OH2           -12.4325410687       16.8744967588      -28.7721705470  TIP3      5556            0.0000000000
     38987      5748  TIP3      H1            -12.4663720327       17.8167836314      -29.0422978934  TIP3      5556            0.0000000000
     38988      5748  TIP3      H2            -11.4755335203       16.7094541879      -28.9353485760  TIP3      5556            0.0000000000
     38989      5749  TIP3      OH2            -8.1196194995       17.9352568634      -26.4996760861  TIP3      5557            0.0000000000
     38990      5749  TIP3      H1             -8.2568204602       17.7608659768      -25.5517946685  TIP3      5557            0.0000000000
     38991      5749  TIP3      H2             -7.3093975591       18.4946555387      -26.4626519682  TIP3      5557            0.0000000000
     38992      5750  TIP3      OH2            -6.0682203768       19.6215940001      -26.5886734731  TIP3      5558            0.0000000000
     38993      5750  TIP3      H1             -5.1889150281       19.5677217575      -26.9850129592  TIP3      5558            0.0000000000
     38994      5750  TIP3      H2             -5.8405997037       19.9751392896      -25.7006399242  TIP3      5558            0.0000000000
     38995      5751  TIP3      OH2            -1.0170821818        1.8401131944      -27.8911325849  TIP3      5559            0.0000000000
     38996      5751  TIP3      H1             -1.8715928493        1.9765178089      -28.3233145523  TIP3      5559            0.0000000000
     38997      5751  TIP3      H2             -0.7809590349        0.9365538724      -28.2247386927  TIP3      5559            0.0000000000
     38998      5752  TIP3      OH2           -15.0577157583       19.8867723320      -29.0165773707  TIP3      5560            0.0000000000
     38999      5752  TIP3      H1            -15.7026596998       20.5464391123      -29.3227501464  TIP3      5560            0.0000000000
     39000      5752  TIP3      H2            -15.2094893824       19.9022157379      -28.0566626768  TIP3      5560            0.0000000000
     39001      5753  TIP3      OH2           -12.4476608489       19.3945069619      -30.0039599706  TIP3      5561            0.0000000000
     39002      5753  TIP3      H1            -13.3849921840       19.4940106814      -29.7246417430  TIP3      5561            0.0000000000
     39003      5753  TIP3      H2            -12.4522291738       19.9408143086      -30.8090509180  TIP3      5561            0.0000000000
     39004      5754  TIP3      OH2            -8.3039669350       18.9938423798      -30.4457155322  TIP3      5562            0.0000000000
     39005      5754  TIP3      H1             -9.0447642203       19.4696141621      -30.8580207626  TIP3      5562            0.0000000000
     39006      5754  TIP3      H2             -7.8794516916       19.7141073221      -29.9282597121  TIP3      5562            0.0000000000
     39007      5755  TIP3      OH2            -6.0039161560       17.7145241550      -29.3954504014  TIP3      5563            0.0000000000
     39008      5755  TIP3      H1             -6.6602556504       18.1849186614      -29.9524088616  TIP3      5563            0.0000000000
     39009      5755  TIP3      H2             -5.2829025963       18.3637818343      -29.4024991235  TIP3      5563            0.0000000000
     39010      5756  TIP3      OH2            -3.2296470586       19.4479985912      -29.6782482736  TIP3      5564            0.0000000000
     39011      5756  TIP3      H1             -3.2054120884       20.3329741003      -30.0906888493  TIP3      5564            0.0000000000
     39012      5756  TIP3      H2             -3.0854474310       18.9162849522      -30.4955502436  TIP3      5564            0.0000000000
     39013      5757  TIP3      OH2           -15.5930036585       18.2980069185      -32.0183874645  TIP3      5565            0.0000000000
     39014      5757  TIP3      H1            -15.8119762910       17.8582066469      -31.1660535224  TIP3      5565            0.0000000000
     39015      5757  TIP3      H2            -14.7274449983       17.8766309449      -32.2257287823  TIP3      5565            0.0000000000
     39016      5758  TIP3      OH2           -13.3576114463       17.3813460908      -33.3238131481  TIP3      5566            0.0000000000
     39017      5758  TIP3      H1            -13.4369174819       16.4096713072      -33.1656333958  TIP3      5566            0.0000000000
     39018      5758  TIP3      H2            -12.5322697602       17.5645818354      -32.8157126013  TIP3      5566            0.0000000000
     39019      5759  TIP3      OH2           -11.1854324501       17.4835741274      -31.8570571519  TIP3      5567            0.0000000000
     39020      5759  TIP3      H1            -10.6492348320       16.7979994093      -32.2771055882  TIP3      5567            0.0000000000
     39021      5759  TIP3      H2            -10.8881277398       17.4527965861      -30.9306559148  TIP3      5567            0.0000000000
     39022      5760  TIP3      OH2            -7.8215905832        2.8361393386      -33.7078766087  TIP3      5568            0.0000000000
     39023      5760  TIP3      H1             -8.6255410309        2.2890767112      -33.5264616741  TIP3      5568            0.0000000000
     39024      5760  TIP3      H2             -7.0903344469        2.2457943468      -33.4961527346  TIP3      5568            0.0000000000
     39025      5761  TIP3      OH2            -2.3820172013        1.5182867614      -33.5193831711  TIP3      5569            0.0000000000
     39026      5761  TIP3      H1             -1.5574844524        1.9294777040      -33.8726229527  TIP3      5569            0.0000000000
     39027      5761  TIP3      H2             -3.0362297193        1.8913667545      -34.1470267947  TIP3      5569            0.0000000000
     39028      5762  TIP3      OH2            -0.7309591422        2.8220673366      -35.0501464682  TIP3      5570            0.0000000000
     39029      5762  TIP3      H1             -0.2294485805        2.0308541381      -35.3755638031  TIP3      5570            0.0000000000
     39030      5762  TIP3      H2             -0.0222535016        3.5027313112      -34.9929177262  TIP3      5570            0.0000000000
     39031      5763  TIP3      OH2           -15.0706110004        1.6599367988      -35.3891988945  TIP3      5571            0.0000000000
     39032      5763  TIP3      H1            -15.9183594688        1.4536565721      -35.8394128934  TIP3      5571            0.0000000000
     39033      5763  TIP3      H2            -14.5735549193        0.8238564160      -35.5345692236  TIP3      5571            0.0000000000
     39034      5764  TIP3      OH2           -16.4583760113        1.6230645425      -39.8455255122  TIP3      5572            0.0000000000
     39035      5764  TIP3      H1            -15.8412502709        2.2125792356      -40.3360350871  TIP3      5572            0.0000000000
     39036      5764  TIP3      H2            -16.8130355770        2.2002410215      -39.1459468601  TIP3      5572            0.0000000000
     39037      5765  TIP3      OH2           -10.8492514598        1.4520401788      -35.6043399310  TIP3      5573            0.0000000000
     39038      5765  TIP3      H1            -10.1060162186        1.7220967762      -36.1590486280  TIP3      5573            0.0000000000
     39039      5765  TIP3      H2            -10.6145567737        1.8181064498      -34.7323580182  TIP3      5573            0.0000000000
     39040      5766  TIP3      OH2            -4.9677820531        1.9898297895      -34.5616815966  TIP3      5574            0.0000000000
     39041      5766  TIP3      H1             -5.4952236581        2.0542993879      -35.3704369675  TIP3      5574            0.0000000000
     39042      5766  TIP3      H2             -5.3088681506        1.1523604532      -34.1752466996  TIP3      5574            0.0000000000
     39043      5767  TIP3      OH2            -3.5576403994        1.6959690402      -38.7000887272  TIP3      5575            0.0000000000
     39044      5767  TIP3      H1             -4.1962918538        2.0283914876      -39.3446628356  TIP3      5575            0.0000000000
     39045      5767  TIP3      H2             -3.9919750938        0.8521531721      -38.4229441480  TIP3      5575            0.0000000000
     39046      5768  TIP3      OH2           -16.3250277307       17.8805985823      -38.7475635039  TIP3      5576            0.0000000000
     39047      5768  TIP3      H1            -17.1692496272       17.8715322362      -39.2261628921  TIP3      5576            0.0000000000
     39048      5768  TIP3      H2            -16.0587887045       18.7849444460      -38.9964587440  TIP3      5576            0.0000000000
     39049      5769  TIP3      OH2           -14.6593478914        2.9777564725      -41.2731853586  TIP3      5577            0.0000000000
     39050      5769  TIP3      H1            -13.8280763053        2.4758604810      -41.2855788025  TIP3      5577            0.0000000000
     39051      5769  TIP3      H2            -14.3871666508        3.8266065371      -40.9068512481  TIP3      5577            0.0000000000
     39052      5770  TIP3      OH2            -9.3458840055        4.1386562151      -38.8860467317  TIP3      5578            0.0000000000
     39053      5770  TIP3      H1             -8.8592899748        3.5881633713      -38.2479706285  TIP3      5578            0.0000000000
     39054      5770  TIP3      H2             -9.2201169645        5.0091549553      -38.4390962620  TIP3      5578            0.0000000000
     39055      5771  TIP3      OH2            -7.5738579832       19.4783686339      -40.7394578220  TIP3      5579            0.0000000000
     39056      5771  TIP3      H1             -6.6591144980       19.5784944115      -40.4257247893  TIP3      5579            0.0000000000
     39057      5771  TIP3      H2             -7.4943381929       18.5410994628      -41.0094632464  TIP3      5579            0.0000000000
     39058      5772  TIP3      OH2            -1.0768144584       18.0723614198      -37.5089677052  TIP3      5580            0.0000000000
     39059      5772  TIP3      H1             -1.1521572487       17.2738825150      -38.0905769998  TIP3      5580            0.0000000000
     39060      5772  TIP3      H2             -1.0712509737       18.7828624443      -38.1852178415  TIP3      5580            0.0000000000
     39061      5773  TIP3      OH2           -15.3833310632        2.3581603430      -26.0327427449  TIP3      5581            0.0000000000
     39062      5773  TIP3      H1            -15.9157695198        1.5371816899      -25.9648749172  TIP3      5581            0.0000000000
     39063      5773  TIP3      H2            -14.5924859450        2.0987431894      -25.5018918993  TIP3      5581            0.0000000000
     39064      5774  TIP3      OH2           -13.1758526901        1.4084924237      -24.4692140423  TIP3      5582            0.0000000000
     39065      5774  TIP3      H1            -12.4168484932        1.6627996008      -25.0199781028  TIP3      5582            0.0000000000
     39066      5774  TIP3      H2            -12.8315432707        0.5354415632      -24.1745297206  TIP3      5582            0.0000000000
     39067      5775  TIP3      OH2           -14.5046954642       18.4878292206      -42.2743599070  TIP3      5583            0.0000000000
     39068      5775  TIP3      H1            -15.0042650883       18.9945471716      -41.6232372117  TIP3      5583            0.0000000000
     39069      5775  TIP3      H2            -13.8679696521       18.0072563520      -41.7362806387  TIP3      5583            0.0000000000
     39070      5776  TIP3      OH2            -4.8175539123        0.9315964973      -24.3445632112  TIP3      5584            0.0000000000
     39071      5776  TIP3      H1             -5.0681237016        0.0792683066      -24.7398008108  TIP3      5584            0.0000000000
     39072      5776  TIP3      H2             -3.9148389295        1.0364236545      -24.7150863412  TIP3      5584            0.0000000000
     39073      5777  TIP3      OH2            -1.5640900446       17.1534968657      -25.7876081435  TIP3      5585            0.0000000000
     39074      5777  TIP3      H1             -2.3374393197       17.1224680201      -26.3954201685  TIP3      5585            0.0000000000
     39075      5777  TIP3      H2             -1.5197340541       18.1112817206      -25.5883171191  TIP3      5585            0.0000000000
     39076      5778  TIP3      OH2            13.1354377425       11.2132635665      -35.7304737249  TIP3      5586            0.0000000000
     39077      5778  TIP3      H1             13.0102404630       12.1908796844      -35.8379623356  TIP3      5586            0.0000000000
     39078      5778  TIP3      H2             12.3277386878       10.8934424127      -36.1555669936  TIP3      5586            0.0000000000
     39079      5779  TIP3      OH2            11.7711527264        9.9505064950      -32.3064700728  TIP3      5587            0.0000000000
     39080      5779  TIP3      H1             12.2997316787        9.6352171826      -31.5519402888  TIP3      5587            0.0000000000
     39081      5779  TIP3      H2             12.1620786715        9.4396559002      -33.0420868950  TIP3      5587            0.0000000000
     39082      5780  TIP3      OH2             3.8300650183        9.9143982378      -30.9478392030  TIP3      5588            0.0000000000
     39083      5780  TIP3      H1              4.0796472110        9.1499150923      -30.4025621052  TIP3      5588            0.0000000000
     39084      5780  TIP3      H2              4.3207233969       10.6345688516      -30.5172875283  TIP3      5588            0.0000000000
     39085      5781  TIP3      OH2            14.9938117090       13.1567742359      -33.7144599368  TIP3      5589            0.0000000000
     39086      5781  TIP3      H1             14.9193126258       12.4885852446      -33.0099288582  TIP3      5589            0.0000000000
     39087      5781  TIP3      H2             15.1915441953       13.9493209853      -33.1946639584  TIP3      5589            0.0000000000
     39088      5782  TIP3      OH2             5.1205467031       14.4542392838      -32.3175287001  TIP3      5590            0.0000000000
     39089      5782  TIP3      H1              4.6521824279       13.6679140440      -32.6361933993  TIP3      5590            0.0000000000
     39090      5782  TIP3      H2              5.9965873008       14.3340988996      -32.7295141357  TIP3      5590            0.0000000000
     39091      5783  TIP3      OH2             1.5096692878        7.7727154090      -36.7451170404  TIP3      5591            0.0000000000
     39092      5783  TIP3      H1              1.0273314845        8.5846537495      -36.5113018809  TIP3      5591            0.0000000000
     39093      5783  TIP3      H2              0.8374061263        7.3452241666      -37.3145919389  TIP3      5591            0.0000000000
     39094      5784  TIP3      OH2             2.3326181762       10.3185701027      -34.3546937114  TIP3      5592            0.0000000000
     39095      5784  TIP3      H1              2.5775322356        9.4877246605      -33.8666953706  TIP3      5592            0.0000000000
     39096      5784  TIP3      H2              3.0449950347       10.9451951035      -34.0823849883  TIP3      5592            0.0000000000
     39097      5785  TIP3      OH2            12.4854453079       18.5979493056      -33.9627360806  TIP3      5593            0.0000000000
     39098      5785  TIP3      H1             13.1407240981       18.0823270384      -34.4920006192  TIP3      5593            0.0000000000
     39099      5785  TIP3      H2             12.3015307245       17.9370506252      -33.2869852715  TIP3      5593            0.0000000000
     39100      5786  TIP3      OH2             9.9764760392       12.9216022596      -31.2829742549  TIP3      5594            0.0000000000
     39101      5786  TIP3      H1             10.2879862103       12.5541806897      -32.1185646819  TIP3      5594            0.0000000000
     39102      5786  TIP3      H2             10.8324208783       13.2088798016      -30.8779961618  TIP3      5594            0.0000000000
     39103      5787  TIP3      OH2            18.5512368036        4.5105090234      -31.7110537110  TIP3      5595            0.0000000000
     39104      5787  TIP3      H1             18.7457446329        4.8554189326      -30.8206210425  TIP3      5595            0.0000000000
     39105      5787  TIP3      H2             19.4639348028        4.4477604518      -32.0392319191  TIP3      5595            0.0000000000
     39106      5788  TIP3      OH2            13.2049466616        7.2630151978      -31.2640434297  TIP3      5596            0.0000000000
     39107      5788  TIP3      H1             13.4763539112        6.3592332432      -31.0189221039  TIP3      5596            0.0000000000
     39108      5788  TIP3      H2             13.0138860974        7.1097015891      -32.2044735885  TIP3      5596            0.0000000000
     39109      5789  TIP3      OH2             6.3464983624        5.0310057975      -34.6111440611  TIP3      5597            0.0000000000
     39110      5789  TIP3      H1              6.5825597951        5.7814277353      -35.1807292157  TIP3      5597            0.0000000000
     39111      5789  TIP3      H2              5.9295998328        4.4292165974      -35.2610451086  TIP3      5597            0.0000000000
     39112      5790  TIP3      OH2            13.9768112099        5.4816242591      -35.6094639637  TIP3      5598            0.0000000000
     39113      5790  TIP3      H1             14.5100695382        5.0316176493      -34.9101158921  TIP3      5598            0.0000000000
     39114      5790  TIP3      H2             14.6763241341        5.8889225328      -36.1569050625  TIP3      5598            0.0000000000
     39115      5791  TIP3      OH2             2.9172277950        7.7946445803      -33.6835926335  TIP3      5599            0.0000000000
     39116      5791  TIP3      H1              3.5038903107        7.3506018903      -33.0395420134  TIP3      5599            0.0000000000
     39117      5791  TIP3      H2              2.7452569600        7.0910427811      -34.3270795927  TIP3      5599            0.0000000000
     39118      5792  TIP3      OH2             7.7782889144        8.9708913085      -34.2088377583  TIP3      5600            0.0000000000
     39119      5792  TIP3      H1              8.5869507469        8.4782635993      -33.9949320553  TIP3      5600            0.0000000000
     39120      5792  TIP3      H2              7.4071891509        8.4233830052      -34.9351640269  TIP3      5600            0.0000000000
     39121      5793  TIP3      OH2            18.7110185196        5.6188172753      -28.9316878347  TIP3      5601            0.0000000000
     39122      5793  TIP3      H1             18.2478590978        6.4440086897      -29.1922298979  TIP3      5601            0.0000000000
     39123      5793  TIP3      H2             18.6329952881        5.6592516866      -27.9611270607  TIP3      5601            0.0000000000
     39124      5794  TIP3      OH2             5.5230432258        4.1884598366      -30.2662255688  TIP3      5602            0.0000000000
     39125      5794  TIP3      H1              5.2171050951        4.7864831301      -30.9747155138  TIP3      5602            0.0000000000
     39126      5794  TIP3      H2              4.7982102242        4.3111440020      -29.6217792260  TIP3      5602            0.0000000000
     39127      5795  TIP3      OH2            12.3705993816       13.5251090654      -36.7749400948  TIP3      5603            0.0000000000
     39128      5795  TIP3      H1             12.1879775122       13.5336979598      -37.7389471713  TIP3      5603            0.0000000000
     39129      5795  TIP3      H2             11.9789788468       14.3796162753      -36.4886539406  TIP3      5603            0.0000000000
     39130      5796  TIP3      OH2             7.4760196368       11.8317667324      -30.7416921308  TIP3      5604            0.0000000000
     39131      5796  TIP3      H1              7.0066860395       12.5305362487      -30.2296307965  TIP3      5604            0.0000000000
     39132      5796  TIP3      H2              8.3005003617       12.3064303847      -30.9685874914  TIP3      5604            0.0000000000
     39133      5797  TIP3      OH2            15.7550073090        4.8652988057      -33.7179865378  TIP3      5605            0.0000000000
     39134      5797  TIP3      H1             16.0011601758        4.2104455172      -33.0501484605  TIP3      5605            0.0000000000
     39135      5797  TIP3      H2             16.5898466636        5.3533724108      -33.8066954921  TIP3      5605            0.0000000000
     39136      5798  TIP3      OH2             5.0548952432        6.1694623781      -32.4584102153  TIP3      5606            0.0000000000
     39137      5798  TIP3      H1              5.6813867499        6.8106537905      -32.0635596876  TIP3      5606            0.0000000000
     39138      5798  TIP3      H2              5.5480055573        5.8569631035      -33.2616096635  TIP3      5606            0.0000000000
     39139      5799  TIP3      OH2             6.3927351383       13.9843239510      -29.4818468841  TIP3      5607            0.0000000000
     39140      5799  TIP3      H1              6.2312383190       14.6922001557      -30.1334973586  TIP3      5607            0.0000000000
     39141      5799  TIP3      H2              5.5004960766       13.8971864214      -29.0538822716  TIP3      5607            0.0000000000
     39142      5800  TIP3      OH2             2.0941398159       13.4118679566      -38.5388009578  TIP3      5608            0.0000000000
     39143      5800  TIP3      H1              2.1265651210       13.8717001034      -39.4069808074  TIP3      5608            0.0000000000
     39144      5800  TIP3      H2              2.1961778335       14.1525430770      -37.9096196598  TIP3      5608            0.0000000000
     39145      5801  TIP3      OH2            15.8977933441       15.2339764812      -31.9304496977  TIP3      5609            0.0000000000
     39146      5801  TIP3      H1             15.0027814286       15.5120831224      -31.6243586111  TIP3      5609            0.0000000000
     39147      5801  TIP3      H2             16.1719847428       16.0836088258      -32.3174695761  TIP3      5609            0.0000000000
     39148      5802  TIP3      OH2            16.1956905591        4.5782262314      -30.0639278560  TIP3      5610            0.0000000000
     39149      5802  TIP3      H1             15.3599405952        4.8250831132      -30.4902769656  TIP3      5610            0.0000000000
     39150      5802  TIP3      H2             16.8650097697        4.7837122551      -30.7441670723  TIP3      5610            0.0000000000
     39151      5803  TIP3      OH2             8.7929112019        1.4897088510      -32.9186726085  TIP3      5611            0.0000000000
     39152      5803  TIP3      H1              8.4291871540        0.6123041834      -32.7560285891  TIP3      5611            0.0000000000
     39153      5803  TIP3      H2              7.9797916815        2.0210412181      -32.7150816011  TIP3      5611            0.0000000000
     39154      5804  TIP3      OH2            14.1663271778       17.0684130578      -35.2244089117  TIP3      5612            0.0000000000
     39155      5804  TIP3      H1             14.4659405806       16.2269581759      -35.6161364993  TIP3      5612            0.0000000000
     39156      5804  TIP3      H2             14.9710967639       17.6355826853      -35.3289739495  TIP3      5612            0.0000000000
     39157      5805  TIP3      OH2            15.3138431279       14.7085157579      -36.6331126005  TIP3      5613            0.0000000000
     39158      5805  TIP3      H1             15.1451731815       13.9868487366      -37.2588922967  TIP3      5613            0.0000000000
     39159      5805  TIP3      H2             15.1364698728       14.2629609149      -35.7869965830  TIP3      5613            0.0000000000
     39160      5806  TIP3      OH2            16.9049457719       13.4813184338      -27.9013977068  TIP3      5614            0.0000000000
     39161      5806  TIP3      H1             16.6243935400       12.7150921428      -28.4375130824  TIP3      5614            0.0000000000
     39162      5806  TIP3      H2             17.0264595534       14.1857120037      -28.5695602165  TIP3      5614            0.0000000000
     39163      5807  TIP3      OH2            11.4025439490       10.2478397860      -38.1765452034  TIP3      5615            0.0000000000
     39164      5807  TIP3      H1             10.7669672092       10.9698746473      -38.3850029065  TIP3      5615            0.0000000000
     39165      5807  TIP3      H2             12.2326821563       10.5610685640      -38.5972986836  TIP3      5615            0.0000000000
     39166      5808  TIP3      OH2            11.3847612554        9.4792921390      -41.1390112224  TIP3      5616            0.0000000000
     39167      5808  TIP3      H1             12.0169921112        9.7480288901      -40.4404089925  TIP3      5616            0.0000000000
     39168      5808  TIP3      H2             11.7976917193        8.6634843562      -41.4521015303  TIP3      5616            0.0000000000
     39169      5809  TIP3      OH2            18.9277367637        9.8670072133      -29.8788500675  TIP3      5617            0.0000000000
     39170      5809  TIP3      H1             18.1919326510       10.5197611170      -29.9062084010  TIP3      5617            0.0000000000
     39171      5809  TIP3      H2             19.4635745966       10.1692539056      -30.6408761513  TIP3      5617            0.0000000000
     39172      5810  TIP3      OH2            15.2520433120       10.1616312843      -37.1881793012  TIP3      5618            0.0000000000
     39173      5810  TIP3      H1             14.5927944961       10.5893852170      -36.5853048448  TIP3      5618            0.0000000000
     39174      5810  TIP3      H2             15.8867364929        9.7683910996      -36.5442810576  TIP3      5618            0.0000000000
     39175      5811  TIP3      OH2             6.1526642900       10.9369271403      -35.5327668327  TIP3      5619            0.0000000000
     39176      5811  TIP3      H1              6.3713246537       10.9234124379      -36.4867209447  TIP3      5619            0.0000000000
     39177      5811  TIP3      H2              6.8976949888       10.4554019205      -35.1377309133  TIP3      5619            0.0000000000
     39178      5812  TIP3      OH2             7.9413255282       14.6043418158      -32.8791779421  TIP3      5620            0.0000000000
     39179      5812  TIP3      H1              8.1272140195       14.3818047166      -33.7944805320  TIP3      5620            0.0000000000
     39180      5812  TIP3      H2              8.6365046794       14.1236230714      -32.3948928995  TIP3      5620            0.0000000000
     39181      5813  TIP3      OH2             6.6486698956        9.6806957049      -31.9367167958  TIP3      5621            0.0000000000
     39182      5813  TIP3      H1              7.0019355681        9.7220008394      -32.8517263240  TIP3      5621            0.0000000000
     39183      5813  TIP3      H2              6.9757608895       10.5131598457      -31.5147904427  TIP3      5621            0.0000000000
     39184      5814  TIP3      OH2            13.5221174618       15.7192307702      -30.9992570294  TIP3      5622            0.0000000000
     39185      5814  TIP3      H1             13.1702239397       16.4214391865      -30.4137863974  TIP3      5622            0.0000000000
     39186      5814  TIP3      H2             13.2295161854       14.8918604830      -30.5703942651  TIP3      5622            0.0000000000
     39187      5815  TIP3      OH2             7.7276369583       14.2718708679      -27.1887195878  TIP3      5623            0.0000000000
     39188      5815  TIP3      H1              7.0078634803       14.8106109378      -26.7803656677  TIP3      5623            0.0000000000
     39189      5815  TIP3      H2              7.3439223400       14.1432315083      -28.0867392493  TIP3      5623            0.0000000000
     39190      5816  TIP3      OH2            13.7165796615       10.1394169571      -39.3736977518  TIP3      5624            0.0000000000
     39191      5816  TIP3      H1             14.3556750046       10.2346672721      -38.6265751494  TIP3      5624            0.0000000000
     39192      5816  TIP3      H2             14.2438514885       10.5017403777      -40.1234175135  TIP3      5624            0.0000000000
     39193      5817  TIP3      OH2             4.7654064943       10.3975918152      -27.7660748821  TIP3      5625            0.0000000000
     39194      5817  TIP3      H1              4.9959366154       11.1456577517      -27.1988316282  TIP3      5625            0.0000000000
     39195      5817  TIP3      H2              3.9521731367       10.0833599402      -27.3350841858  TIP3      5625            0.0000000000
     39196      5818  TIP3      OH2            11.3751769945       15.8974063440      -35.7987367777  TIP3      5626            0.0000000000
     39197      5818  TIP3      H1             11.7814975448       16.5386741018      -35.2060850356  TIP3      5626            0.0000000000
     39198      5818  TIP3      H2             11.0785584559       16.4450792560      -36.5357077726  TIP3      5626            0.0000000000
     39199      5819  TIP3      OH2             6.0086453637       16.1049747667      -26.3658463336  TIP3      5627            0.0000000000
     39200      5819  TIP3      H1              5.8858801725       16.5396155376      -27.2403893153  TIP3      5627            0.0000000000
     39201      5819  TIP3      H2              5.0956766475       15.8364235285      -26.1160361112  TIP3      5627            0.0000000000
     39202      5820  TIP3      OH2            17.9813467267        1.4082401980      -39.4980028826  TIP3      5628            0.0000000000
     39203      5820  TIP3      H1             16.9972427949        1.4091681791      -39.5232380165  TIP3      5628            0.0000000000
     39204      5820  TIP3      H2             18.1595247464        2.3405112700      -39.6942340249  TIP3      5628            0.0000000000
     39205      5821  TIP3      OH2             5.4061058056       10.0208555560      -38.1086089045  TIP3      5629            0.0000000000
     39206      5821  TIP3      H1              5.0768472851       10.8154462651      -38.5974890091  TIP3      5629            0.0000000000
     39207      5821  TIP3      H2              5.3092831662        9.2946742753      -38.7424426832  TIP3      5629            0.0000000000
     39208      5822  TIP3      OH2            18.5211127918       15.8131656064      -41.5935385671  TIP3      5630            0.0000000000
     39209      5822  TIP3      H1             18.8209335175       16.7365102263      -41.4774823449  TIP3      5630            0.0000000000
     39210      5822  TIP3      H2             19.3601496977       15.3415262661      -41.4516735170  TIP3      5630            0.0000000000
     39211      5823  TIP3      OH2             1.7414918474       12.5927353993      -28.7217842587  TIP3      5631            0.0000000000
     39212      5823  TIP3      H1              1.4346150537       12.3783521033      -29.6208425429  TIP3      5631            0.0000000000
     39213      5823  TIP3      H2              1.8775726319       11.6901590061      -28.3592902737  TIP3      5631            0.0000000000
     39214      5824  TIP3      OH2             1.3985443643       15.3171153797      -32.0176901805  TIP3      5632            0.0000000000
     39215      5824  TIP3      H1              2.3505386971       15.2411822000      -31.8915665153  TIP3      5632            0.0000000000
     39216      5824  TIP3      H2              1.2633884751       16.2343853960      -31.7429116152  TIP3      5632            0.0000000000
     39217      5825  TIP3      OH2            19.8440123075       15.9666723798      -26.4420595860  TIP3      5633            0.0000000000
     39218      5825  TIP3      H1             19.3964256580       15.1111237673      -26.3653343372  TIP3      5633            0.0000000000
     39219      5825  TIP3      H2             19.0763147370       16.5544828804      -26.2654738066  TIP3      5633            0.0000000000
     39220      5826  TIP3      OH2            10.0664608241       15.5687213187      -27.3590221402  TIP3      5634            0.0000000000
     39221      5826  TIP3      H1             10.1079158679       16.5165625527      -27.0960051079  TIP3      5634            0.0000000000
     39222      5826  TIP3      H2              9.0990804879       15.3649762728      -27.2859344958  TIP3      5634            0.0000000000
     39223      5827  TIP3      OH2            11.1440404761       19.2595577104      -38.0696145395  TIP3      5635            0.0000000000
     39224      5827  TIP3      H1             11.2198062190       19.5274690856      -39.0131641916  TIP3      5635            0.0000000000
     39225      5827  TIP3      H2             11.0985312639       20.1372009663      -37.6373358808  TIP3      5635            0.0000000000
     39226      5828  TIP3      OH2             4.6800993997       18.0325726082      -35.8238448646  TIP3      5636            0.0000000000
     39227      5828  TIP3      H1              4.9277283205       17.7312381596      -34.9188087980  TIP3      5636            0.0000000000
     39228      5828  TIP3      H2              3.8229447236       17.5813828185      -35.9667010530  TIP3      5636            0.0000000000
     39229      5829  TIP3      OH2            14.0426790686       18.8545862319      -40.7973332091  TIP3      5637            0.0000000000
     39230      5829  TIP3      H1             14.5522858368       18.0928916517      -41.1201954760  TIP3      5637            0.0000000000
     39231      5829  TIP3      H2             14.0067656145       18.6655146297      -39.8298820244  TIP3      5637            0.0000000000
     39232      5830  TIP3      OH2            13.7618366889       18.5813186436      -38.1543623004  TIP3      5638            0.0000000000
     39233      5830  TIP3      H1             12.7844213904       18.6535682816      -38.0332188858  TIP3      5638            0.0000000000
     39234      5830  TIP3      H2             13.9724145312       17.8221758798      -37.5996303540  TIP3      5638            0.0000000000
     39235      5831  TIP3      OH2             4.1102212160       14.0548985028      -28.1553834603  TIP3      5639            0.0000000000
     39236      5831  TIP3      H1              4.2615279176       13.7428708264      -27.2388122869  TIP3      5639            0.0000000000
     39237      5831  TIP3      H2              3.2474509799       13.6463237595      -28.3487241601  TIP3      5639            0.0000000000
     39238      5832  TIP3      OH2             6.5186370299        2.5778443702      -32.2639534558  TIP3      5640            0.0000000000
     39239      5832  TIP3      H1              5.5627028158        2.3887229516      -32.3552140973  TIP3      5640            0.0000000000
     39240      5832  TIP3      H2              6.4978937325        3.2889467873      -31.5974223926  TIP3      5640            0.0000000000
     39241      5833  TIP3      OH2            11.2969626503        2.0365531811      -28.6819937134  TIP3      5641            0.0000000000
     39242      5833  TIP3      H1             11.7506397833        1.5679638154      -27.9452964836  TIP3      5641            0.0000000000
     39243      5833  TIP3      H2             10.3423936796        1.9175555976      -28.4632275341  TIP3      5641            0.0000000000
     39244      5834  TIP3      OH2            14.9887745618       11.0834199843      -41.4391482180  TIP3      5642            0.0000000000
     39245      5834  TIP3      H1             15.1388783826       11.1420573627      -42.3869664239  TIP3      5642            0.0000000000
     39246      5834  TIP3      H2             15.7685266746       11.5836091353      -41.1311637524  TIP3      5642            0.0000000000
     39247      5835  TIP3      OH2            10.9582190320        5.0838825551      -41.1936965750  TIP3      5643            0.0000000000
     39248      5835  TIP3      H1             10.4538885628        5.1247380001      -40.3631333221  TIP3      5643            0.0000000000
     39249      5835  TIP3      H2             10.6963772710        4.2082967227      -41.5015659362  TIP3      5643            0.0000000000
     39250      5836  TIP3      OH2             6.6430445482        7.4730955380      -30.5381906126  TIP3      5644            0.0000000000
     39251      5836  TIP3      H1              5.7973806939        7.4729189284      -30.0443489583  TIP3      5644            0.0000000000
     39252      5836  TIP3      H2              6.5734480242        8.3282238292      -31.0284505226  TIP3      5644            0.0000000000
     39253      5837  TIP3      OH2             6.4079685158        7.3666316414      -36.1630450585  TIP3      5645            0.0000000000
     39254      5837  TIP3      H1              5.5438006544        6.9218410170      -36.2799897938  TIP3      5645            0.0000000000
     39255      5837  TIP3      H2              6.8363502103        7.1330653479      -37.0250872146  TIP3      5645            0.0000000000
     39256      5838  TIP3      OH2            12.1639404292        7.8182267580      -37.2765767126  TIP3      5646            0.0000000000
     39257      5838  TIP3      H1             11.9457575381        8.7249695550      -37.6113104823  TIP3      5646            0.0000000000
     39258      5838  TIP3      H2             12.8314566759        7.5392040721      -37.9351761266  TIP3      5646            0.0000000000
     39259      5839  TIP3      OH2            12.8906817268        7.8163037803      -34.0860549024  TIP3      5647            0.0000000000
     39260      5839  TIP3      H1             13.0758934325        8.5733508238      -34.6658986203  TIP3      5647            0.0000000000
     39261      5839  TIP3      H2             13.0421895966        7.0886458327      -34.7253539007  TIP3      5647            0.0000000000
     39262      5840  TIP3      OH2             4.1633506761        7.3350135236      -29.4784142894  TIP3      5648            0.0000000000
     39263      5840  TIP3      H1              4.4943619229        7.6917939542      -28.6344765244  TIP3      5648            0.0000000000
     39264      5840  TIP3      H2              3.7884476317        6.4644374428      -29.2264239882  TIP3      5648            0.0000000000
     39265      5841  TIP3      OH2             7.4339056579        5.3617166793      -41.7241673139  TIP3      5649            0.0000000000
     39266      5841  TIP3      H1              7.1024620010        4.6711945524      -41.1042021275  TIP3      5649            0.0000000000
     39267      5841  TIP3      H2              7.2192995563        6.1710284173      -41.2162684915  TIP3      5649            0.0000000000
     39268      5842  TIP3      OH2             1.1671401978        4.7564488637      -34.8664208609  TIP3      5650            0.0000000000
     39269      5842  TIP3      H1              1.8201807091        4.6218927751      -34.1473098518  TIP3      5650            0.0000000000
     39270      5842  TIP3      H2              1.5878667559        4.4132699218      -35.6679981546  TIP3      5650            0.0000000000
     39271      5843  TIP3      OH2             2.1127986831        5.3123325712      -39.6649193961  TIP3      5651            0.0000000000
     39272      5843  TIP3      H1              2.7883681288        5.8011922599      -40.1858807348  TIP3      5651            0.0000000000
     39273      5843  TIP3      H2              1.5058822618        6.0625352807      -39.4637292124  TIP3      5651            0.0000000000
     39274      5844  TIP3      OH2            12.2917417474        9.2546333722      -29.6066918751  TIP3      5652            0.0000000000
     39275      5844  TIP3      H1             12.9654509532        8.5904732353      -29.8494725859  TIP3      5652            0.0000000000
     39276      5844  TIP3      H2             11.7612588640        8.7221739599      -28.9872120408  TIP3      5652            0.0000000000
     39277      5845  TIP3      OH2             9.4361439269        5.0008135758      -34.9033822420  TIP3      5653            0.0000000000
     39278      5845  TIP3      H1              8.4745990648        4.8982384232      -34.7737492106  TIP3      5653            0.0000000000
     39279      5845  TIP3      H2              9.7880448313        4.5164054527      -34.1208870365  TIP3      5653            0.0000000000
     39280      5846  TIP3      OH2             3.9051570905        6.3369849693      -36.5221396653  TIP3      5654            0.0000000000
     39281      5846  TIP3      H1              2.9858908430        6.3180126586      -36.8689380620  TIP3      5654            0.0000000000
     39282      5846  TIP3      H2              4.1519517923        5.3763106314      -36.5072012885  TIP3      5654            0.0000000000
     39283      5847  TIP3      OH2             7.3004798293        6.7925444988      -38.5914244648  TIP3      5655            0.0000000000
     39284      5847  TIP3      H1              8.2708499902        6.7883924208      -38.4346912017  TIP3      5655            0.0000000000
     39285      5847  TIP3      H2              7.1823896218        7.3246014469      -39.4114540918  TIP3      5655            0.0000000000
     39286      5848  TIP3      OH2            13.6180593786        4.4461879144      -31.5419569975  TIP3      5656            0.0000000000
     39287      5848  TIP3      H1             12.9486941679        4.1193491727      -30.9154017242  TIP3      5656            0.0000000000
     39288      5848  TIP3      H2             13.5315682785        3.8032182356      -32.2723966764  TIP3      5656            0.0000000000
     39289      5849  TIP3      OH2             6.5946908799        7.9594871081      -40.9427796235  TIP3      5657            0.0000000000
     39290      5849  TIP3      H1              5.9784230409        7.7729667767      -41.6787580568  TIP3      5657            0.0000000000
     39291      5849  TIP3      H2              7.3521680259        8.3709182919      -41.4166781303  TIP3      5657            0.0000000000
     39292      5850  TIP3      OH2            16.7809422223       20.0334372466      -25.1838401803  TIP3      5658            0.0000000000
     39293      5850  TIP3      H1             17.2192668912       20.1387269074      -26.0519333156  TIP3      5658            0.0000000000
     39294      5850  TIP3      H2             17.5600675407       20.2691143262      -24.6391840962  TIP3      5658            0.0000000000
     39295      5851  TIP3      OH2             4.4384041707       12.6794970809      -25.7648475259  TIP3      5659            0.0000000000
     39296      5851  TIP3      H1              5.0392936723       12.8939691054      -25.0141472648  TIP3      5659            0.0000000000
     39297      5851  TIP3      H2              3.6861223101       12.2622566128      -25.2829675310  TIP3      5659            0.0000000000
     39298      5852  TIP3      OH2            10.2198862764        7.2222154729      -33.1424208536  TIP3      5660            0.0000000000
     39299      5852  TIP3      H1             11.0636789630        7.2854841594      -33.6173805899  TIP3      5660            0.0000000000
     39300      5852  TIP3      H2             10.1040509565        6.2579588489      -33.0854391552  TIP3      5660            0.0000000000
     39301      5853  TIP3      OH2             4.8859442313        3.8213929410      -36.5591501322  TIP3      5661            0.0000000000
     39302      5853  TIP3      H1              4.4719956450        3.0588892243      -36.0925550236  TIP3      5661            0.0000000000
     39303      5853  TIP3      H2              5.0831758550        3.4575659203      -37.4413404575  TIP3      5661            0.0000000000
     39304      5854  TIP3      OH2             8.7338350426        5.8979754747      -30.8844658700  TIP3      5662            0.0000000000
     39305      5854  TIP3      H1              7.8938703474        6.4178242300      -30.8165189380  TIP3      5662            0.0000000000
     39306      5854  TIP3      H2              9.2927299331        6.2408695894      -30.1809170413  TIP3      5662            0.0000000000
     39307      5855  TIP3      OH2             9.7684147981       12.3089032927      -38.5557780996  TIP3      5663            0.0000000000
     39308      5855  TIP3      H1              8.9793660689       11.8442275369      -38.9155863836  TIP3      5663            0.0000000000
     39309      5855  TIP3      H2              9.3752328425       12.6711849487      -37.7230833652  TIP3      5663            0.0000000000
     39310      5856  TIP3      OH2            16.9917793221       11.7381465971      -29.9487818044  TIP3      5664            0.0000000000
     39311      5856  TIP3      H1             17.4655778685       12.3480529474      -30.5623966208  TIP3      5664            0.0000000000
     39312      5856  TIP3      H2             16.1564511753       11.6218197257      -30.4331263392  TIP3      5664            0.0000000000
     39313      5857  TIP3      OH2            13.5351251901        5.2972333670      -40.8284159927  TIP3      5665            0.0000000000
     39314      5857  TIP3      H1             12.6669436146        5.4742968632      -41.2428094247  TIP3      5665            0.0000000000
     39315      5857  TIP3      H2             13.6274701394        6.0597943656      -40.2355694821  TIP3      5665            0.0000000000
     39316      5858  TIP3      OH2            10.8395126705       12.7662775115      -27.5692928909  TIP3      5666            0.0000000000
     39317      5858  TIP3      H1             10.7166194244       12.5944747007      -26.6210000942  TIP3      5666            0.0000000000
     39318      5858  TIP3      H2             10.4542375903       13.6606708089      -27.6277800280  TIP3      5666            0.0000000000
     39319      5859  TIP3      OH2            14.2882254348        7.2180201707      -38.9910557114  TIP3      5667            0.0000000000
     39320      5859  TIP3      H1             14.8623328193        7.0128057571      -38.2272418134  TIP3      5667            0.0000000000
     39321      5859  TIP3      H2             14.7192048031        8.0052981608      -39.3445119796  TIP3      5667            0.0000000000
     39322      5860  TIP3      OH2             4.5592810530       11.6677909771      -33.4913786021  TIP3      5668            0.0000000000
     39323      5860  TIP3      H1              5.0941030494       11.6320554309      -34.3165531423  TIP3      5668            0.0000000000
     39324      5860  TIP3      H2              5.0426503457       11.0818123692      -32.8839732234  TIP3      5668            0.0000000000
     39325      5861  TIP3      OH2            11.8128679006       13.6917824107      -39.5831739926  TIP3      5669            0.0000000000
     39326      5861  TIP3      H1             11.3209022918       14.5153386394      -39.3508354974  TIP3      5669            0.0000000000
     39327      5861  TIP3      H2             11.1354030883       13.0142700734      -39.3550558033  TIP3      5669            0.0000000000
     39328      5862  TIP3      OH2             1.7783421279       10.0680712477      -27.5340140670  TIP3      5670            0.0000000000
     39329      5862  TIP3      H1              1.5951233741        9.4320091942      -26.8048735523  TIP3      5670            0.0000000000
     39330      5862  TIP3      H2              1.2544639396        9.6706843208      -28.2484751313  TIP3      5670            0.0000000000
     39331      5863  TIP3      OH2             8.8201544031        9.7991347690      -26.2892995715  TIP3      5671            0.0000000000
     39332      5863  TIP3      H1              8.3429934026        9.0929045542      -26.7474076217  TIP3      5671            0.0000000000
     39333      5863  TIP3      H2              9.6649116841        9.4037173719      -26.0177291062  TIP3      5671            0.0000000000
     39334      5864  TIP3      OH2            13.6810477386       15.3989836561      -27.4121174507  TIP3      5672            0.0000000000
     39335      5864  TIP3      H1             12.8490766723       15.4215048509      -27.8949528977  TIP3      5672            0.0000000000
     39336      5864  TIP3      H2             13.3872167822       15.6944550930      -26.5255447579  TIP3      5672            0.0000000000
     39337      5865  TIP3      OH2            18.7799084352        7.2670994244      -38.8574015586  TIP3      5673            0.0000000000
     39338      5865  TIP3      H1             18.4744670118        7.0442618199      -39.7510798656  TIP3      5673            0.0000000000
     39339      5865  TIP3      H2             19.0947545501        8.1837049701      -38.9708227688  TIP3      5673            0.0000000000
     39340      5866  TIP3      OH2            19.2367480065       13.0012203373      -26.7117299284  TIP3      5674            0.0000000000
     39341      5866  TIP3      H1             18.4036040187       13.1340294404      -27.2396857708  TIP3      5674            0.0000000000
     39342      5866  TIP3      H2             19.9123935327       13.1058478165      -27.4149668528  TIP3      5674            0.0000000000
     39343      5867  TIP3      OH2            17.4474038517       15.8073163900      -39.0267895422  TIP3      5675            0.0000000000
     39344      5867  TIP3      H1             16.9575529387       14.9843665951      -38.9342253496  TIP3      5675            0.0000000000
     39345      5867  TIP3      H2             17.7030446362       15.8211158471      -39.9780994840  TIP3      5675            0.0000000000
     39346      5868  TIP3      OH2            14.6730108056       11.0252085365      -31.8319565994  TIP3      5676            0.0000000000
     39347      5868  TIP3      H1             13.7279713011       10.9150648123      -31.9941416919  TIP3      5676            0.0000000000
     39348      5868  TIP3      H2             15.0816315100       10.3466543706      -32.3982223667  TIP3      5676            0.0000000000
     39349      5869  TIP3      OH2             7.0490241963       15.4312080688      -35.8267078615  TIP3      5677            0.0000000000
     39350      5869  TIP3      H1              7.2145305385       16.3577240419      -36.1189478768  TIP3      5677            0.0000000000
     39351      5869  TIP3      H2              6.1737625018       15.2854717047      -36.2089384335  TIP3      5677            0.0000000000
     39352      5870  TIP3      OH2             3.0352681217       10.1322102336      -41.0866433341  TIP3      5678            0.0000000000
     39353      5870  TIP3      H1              3.4984822697       10.8026968904      -40.5497189351  TIP3      5678            0.0000000000
     39354      5870  TIP3      H2              2.0917642196       10.3308859046      -40.9176157741  TIP3      5678            0.0000000000
     39355      5871  TIP3      OH2             8.5991922499       13.2603753898      -36.2935533978  TIP3      5679            0.0000000000
     39356      5871  TIP3      H1              8.0629874544       14.0775584125      -36.1613221345  TIP3      5679            0.0000000000
     39357      5871  TIP3      H2              8.5212619529       12.8303912335      -35.4398997548  TIP3      5679            0.0000000000
     39358      5872  TIP3      OH2             9.0755866837       17.1723754058      -29.4336072188  TIP3      5680            0.0000000000
     39359      5872  TIP3      H1              9.7104976293       17.8619036261      -29.7098077494  TIP3      5680            0.0000000000
     39360      5872  TIP3      H2              9.6125502079       16.6604413505      -28.7977928733  TIP3      5680            0.0000000000
     39361      5873  TIP3      OH2             7.2141260417       17.9437178964      -36.7488878095  TIP3      5681            0.0000000000
     39362      5873  TIP3      H1              6.2530914381       17.9982879838      -36.5512699939  TIP3      5681            0.0000000000
     39363      5873  TIP3      H2              7.4884365673       18.7863897432      -36.3190911572  TIP3      5681            0.0000000000
     39364      5874  TIP3      OH2            12.4303629358       13.1319375145      -30.0996204531  TIP3      5682            0.0000000000
     39365      5874  TIP3      H1             12.0499196290       13.1655132702      -29.1963553181  TIP3      5682            0.0000000000
     39366      5874  TIP3      H2             13.0339941725       12.3721728196      -30.0179427470  TIP3      5682            0.0000000000
     39367      5875  TIP3      OH2            14.8261610320       14.3511045650      -40.5566828546  TIP3      5683            0.0000000000
     39368      5875  TIP3      H1             15.0870240096       13.8015382186      -39.7936325967  TIP3      5683            0.0000000000
     39369      5875  TIP3      H2             13.9392454426       13.9688579996      -40.6692944675  TIP3      5683            0.0000000000
     39370      5876  TIP3      OH2            15.4754521244       17.5079114427      -27.5828510095  TIP3      5684            0.0000000000
     39371      5876  TIP3      H1             14.7020828041       16.8977062680      -27.5954797625  TIP3      5684            0.0000000000
     39372      5876  TIP3      H2             15.3800691148       17.9844246974      -28.4342957429  TIP3      5684            0.0000000000
     39373      5877  TIP3      OH2            19.2080124545       18.4514310235      -40.6649811038  TIP3      5685            0.0000000000
     39374      5877  TIP3      H1             19.7830656523       19.0141937535      -41.2124625662  TIP3      5685            0.0000000000
     39375      5877  TIP3      H2             18.6042225142       19.1124986357      -40.2528892387  TIP3      5685            0.0000000000
     39376      5878  TIP3      OH2             3.3406096597        4.8000017925      -28.5489255409  TIP3      5686            0.0000000000
     39377      5878  TIP3      H1              2.6138375615        5.3761687555      -28.2373419031  TIP3      5686            0.0000000000
     39378      5878  TIP3      H2              3.2580855580        4.0649305078      -27.9197174239  TIP3      5686            0.0000000000
     39379      5879  TIP3      OH2            15.7528425198       12.4435509094      -38.6184989719  TIP3      5687            0.0000000000
     39380      5879  TIP3      H1             15.5379377340       11.6653132379      -38.0579073677  TIP3      5687            0.0000000000
     39381      5879  TIP3      H2             16.7300613340       12.4338911009      -38.5697292629  TIP3      5687            0.0000000000
     39382      5880  TIP3      OH2             3.0665364610       16.6593268414      -30.0420835432  TIP3      5688            0.0000000000
     39383      5880  TIP3      H1              3.7373757192       15.9696377670      -30.0008342714  TIP3      5688            0.0000000000
     39384      5880  TIP3      H2              3.1110229963       17.0090424786      -29.1403129187  TIP3      5688            0.0000000000
     39385      5881  TIP3      OH2             7.6797913359       14.7758260369      -39.8817464515  TIP3      5689            0.0000000000
     39386      5881  TIP3      H1              8.4035642859       14.3966829805      -39.3671773269  TIP3      5689            0.0000000000
     39387      5881  TIP3      H2              7.8194386041       15.7452075353      -39.7470883622  TIP3      5689            0.0000000000
     39388      5882  TIP3      OH2             4.3035600944       12.0303252336      -39.4785893980  TIP3      5690            0.0000000000
     39389      5882  TIP3      H1              3.5978112900       12.4405127789      -38.9314507983  TIP3      5690            0.0000000000
     39390      5882  TIP3      H2              4.6587656919       12.8056167085      -39.9624488954  TIP3      5690            0.0000000000
     39391      5883  TIP3      OH2            12.0331134203        4.7303511865      -29.0088361875  TIP3      5691            0.0000000000
     39392      5883  TIP3      H1             12.8450949419        4.8043403467      -28.4900992260  TIP3      5691            0.0000000000
     39393      5883  TIP3      H2             11.7524111021        3.8200605186      -28.7665288394  TIP3      5691            0.0000000000
     39394      5884  TIP3      OH2            12.7909183207        4.4303559317      -37.7875244619  TIP3      5692            0.0000000000
     39395      5884  TIP3      H1             13.1899635412        4.8858581686      -38.5397857763  TIP3      5692            0.0000000000
     39396      5884  TIP3      H2             13.2186299461        4.8548748507      -37.0094728744  TIP3      5692            0.0000000000
     39397      5885  TIP3      OH2            10.7833734359       16.1150558800      -39.0208921840  TIP3      5693            0.0000000000
     39398      5885  TIP3      H1             10.1027360348       16.7856446740      -38.8515144578  TIP3      5693            0.0000000000
     39399      5885  TIP3      H2             11.2308131500       16.4946878241      -39.8019467047  TIP3      5693            0.0000000000
     39400      5886  TIP3      OH2             9.8058961097        6.4251898308      -37.2613795295  TIP3      5694            0.0000000000
     39401      5886  TIP3      H1             10.6323920714        6.9422556522      -37.1334604531  TIP3      5694            0.0000000000
     39402      5886  TIP3      H2              9.7097374026        5.9388165246      -36.4200650959  TIP3      5694            0.0000000000
     39403      5887  TIP3      OH2            10.9194051201        7.2182236966      -28.5181580526  TIP3      5695            0.0000000000
     39404      5887  TIP3      H1             10.5305227909        6.8549932147      -27.7116245739  TIP3      5695            0.0000000000
     39405      5887  TIP3      H2             11.4486215994        6.4350514045      -28.7982282664  TIP3      5695            0.0000000000
     39406      5888  TIP3      OH2            10.9510753094        2.8070853033      -36.6668629886  TIP3      5696            0.0000000000
     39407      5888  TIP3      H1             10.3779754642        3.4519007625      -36.2130473069  TIP3      5696            0.0000000000
     39408      5888  TIP3      H2             11.6924670079        3.3800066272      -37.0047706090  TIP3      5696            0.0000000000
     39409      5889  TIP3      OH2             8.0047513456       17.3969005244      -39.3670042069  TIP3      5697            0.0000000000
     39410      5889  TIP3      H1              8.2529060653       18.2703783308      -39.7251868751  TIP3      5697            0.0000000000
     39411      5889  TIP3      H2              7.6122728621       17.6805163984      -38.5104188433  TIP3      5697            0.0000000000
     39412      5890  TIP3      OH2             6.4936501988        4.0935064998      -39.6301976458  TIP3      5698            0.0000000000
     39413      5890  TIP3      H1              6.5092276594        4.9030068054      -39.0970567461  TIP3      5698            0.0000000000
     39414      5890  TIP3      H2              7.2847594226        3.6482330828      -39.2670004534  TIP3      5698            0.0000000000
     39415      5891  TIP3      OH2            16.7095546822        4.9994440762      -27.1409634951  TIP3      5699            0.0000000000
     39416      5891  TIP3      H1             15.8561227754        5.4472220197      -27.1097841771  TIP3      5699            0.0000000000
     39417      5891  TIP3      H2             16.7984183572        4.7958151921      -28.0977930525  TIP3      5699            0.0000000000
     39418      5892  TIP3      OH2            15.6045536785        8.6077145594      -33.3231621979  TIP3      5700            0.0000000000
     39419      5892  TIP3      H1             14.9281932285        7.9233649557      -33.2774072636  TIP3      5700            0.0000000000
     39420      5892  TIP3      H2             16.2974580488        8.2293719535      -32.7319074225  TIP3      5700            0.0000000000
     39421      5893  TIP3      OH2             4.9827465188       14.5654193828      -40.8359994882  TIP3      5701            0.0000000000
     39422      5893  TIP3      H1              5.7898735710       14.8773407486      -40.3791870372  TIP3      5701            0.0000000000
     39423      5893  TIP3      H2              5.4109712311       14.0397830274      -41.5360208783  TIP3      5701            0.0000000000
     39424      5894  TIP3      OH2             3.2573144966        7.3542394228      -41.1347845788  TIP3      5702            0.0000000000
     39425      5894  TIP3      H1              3.3412676765        8.3304429423      -41.1256800401  TIP3      5702            0.0000000000
     39426      5894  TIP3      H2              2.5830492629        7.2150182165      -41.8084685811  TIP3      5702            0.0000000000
     39427      5895  TIP3      OH2            16.5689185559       17.9235284068      -31.8408096141  TIP3      5703            0.0000000000
     39428      5895  TIP3      H1             16.6602025291       18.6437673283      -32.4959249363  TIP3      5703            0.0000000000
     39429      5895  TIP3      H2             17.5143569551       17.8575134767      -31.5966045889  TIP3      5703            0.0000000000
     39430      5896  TIP3      OH2             3.8829466621        2.0549519274      -32.5395333773  TIP3      5704            0.0000000000
     39431      5896  TIP3      H1              3.7933048135        1.9306112158      -33.5075434537  TIP3      5704            0.0000000000
     39432      5896  TIP3      H2              3.6450899992        1.1397234711      -32.2701484662  TIP3      5704            0.0000000000
     39433      5897  TIP3      OH2             2.7081494980       16.1725191963      -36.8190793446  TIP3      5705            0.0000000000
     39434      5897  TIP3      H1              1.8651489002       16.4725321819      -36.4591095834  TIP3      5705            0.0000000000
     39435      5897  TIP3      H2              2.7259443525       16.6613904007      -37.6760580607  TIP3      5705            0.0000000000
     39436      5898  TIP3      OH2             2.0301985901       18.5374247286      -25.6383361910  TIP3      5706            0.0000000000
     39437      5898  TIP3      H1              2.5865017897       18.4447677611      -24.8319084288  TIP3      5706            0.0000000000
     39438      5898  TIP3      H2              1.6456015628       17.6413172027      -25.7239529885  TIP3      5706            0.0000000000
     39439      5899  TIP3      OH2             6.5821888897       17.8156147439      -24.1425314186  TIP3      5707            0.0000000000
     39440      5899  TIP3      H1              7.0343387806       17.1079499721      -23.6542227763  TIP3      5707            0.0000000000
     39441      5899  TIP3      H2              6.5719532848       17.4372657133      -25.0456116494  TIP3      5707            0.0000000000
     39442      5900  TIP3      OH2            11.7308014077       17.2724419305      -41.4115691375  TIP3      5708            0.0000000000
     39443      5900  TIP3      H1             11.2386157190       16.6513571897      -41.9927183765  TIP3      5708            0.0000000000
     39444      5900  TIP3      H2             12.3016199173       17.7010425591      -42.0746407054  TIP3      5708            0.0000000000
     39445      5901  TIP3      OH2            12.9645056401       16.1255774867      -24.9221557328  TIP3      5709            0.0000000000
     39446      5901  TIP3      H1             12.5560011238       15.2554583689      -24.7890481166  TIP3      5709            0.0000000000
     39447      5901  TIP3      H2             13.6588696392       16.1113945312      -24.2338269170  TIP3      5709            0.0000000000
     39448      5902  TIP3      OH2            15.8187389594       16.8641181056      -42.2032291462  TIP3      5710            0.0000000000
     39449      5902  TIP3      H1             15.6067835287       16.1203079901      -41.5986148937  TIP3      5710            0.0000000000
     39450      5902  TIP3      H2             16.7757894240       16.7307430997      -42.3061628091  TIP3      5710            0.0000000000
     39451      5903  TIP3      OH2             2.0812823774       11.8880459403      -24.7048159968  TIP3      5711            0.0000000000
     39452      5903  TIP3      H1              1.3309413077       11.3993269414      -24.3279743007  TIP3      5711            0.0000000000
     39453      5903  TIP3      H2              1.6011606994       12.5633206442      -25.2253467886  TIP3      5711            0.0000000000
     39454      5904  TIP3      OH2             6.6486280893       12.6265566452      -42.0339941495  TIP3      5712            0.0000000000
     39455      5904  TIP3      H1              7.3178784175       12.5560119646      -41.3367375314  TIP3      5712            0.0000000000
     39456      5904  TIP3      H2              7.0636678681       12.1186339502      -42.7681575534  TIP3      5712            0.0000000000
     39457      5905  TIP3      OH2             8.8119236003       12.5242181415      -25.4089325652  TIP3      5713            0.0000000000
     39458      5905  TIP3      H1              8.5141003079       13.1790428546      -26.0896083191  TIP3      5713            0.0000000000
     39459      5905  TIP3      H2              8.7321539785       11.6666858455      -25.8867525507  TIP3      5713            0.0000000000
     39460      5906  TIP3      OH2             3.4140322230        9.3287743485      -24.9720575772  TIP3      5714            0.0000000000
     39461      5906  TIP3      H1              3.8913882302        8.9464886444      -24.2270419788  TIP3      5714            0.0000000000
     39462      5906  TIP3      H2              3.3487211870       10.2660013633      -24.7241905678  TIP3      5714            0.0000000000
     39463      5907  TIP3      OH2             7.7221254664       11.0095630346      -39.8077441301  TIP3      5715            0.0000000000
     39464      5907  TIP3      H1              7.0346946707       10.4768394636      -39.3726801773  TIP3      5715            0.0000000000
     39465      5907  TIP3      H2              8.0411557161       10.3834902578      -40.4777769971  TIP3      5715            0.0000000000
     39466      5908  TIP3      OH2             6.6786908562        8.6283598644      -27.9824583787  TIP3      5716            0.0000000000
     39467      5908  TIP3      H1              6.0452712510        9.3309238936      -27.7016580560  TIP3      5716            0.0000000000
     39468      5908  TIP3      H2              7.2563049784        9.1062676407      -28.6097494434  TIP3      5716            0.0000000000
     39469      5909  TIP3      OH2             8.8644559752        9.0622517782      -42.0199866683  TIP3      5717            0.0000000000
     39470      5909  TIP3      H1              9.1801100927        8.9999472891      -42.9368020868  TIP3      5717            0.0000000000
     39471      5909  TIP3      H2              9.7365206735        9.1576011814      -41.5492868531  TIP3      5717            0.0000000000
     39472      5910  TIP3      OH2            17.6821484728       11.7487780404       42.5134774292  TIP3      5718            0.0000000000
     39473      5910  TIP3      H1             17.6404332166       11.3583585150       41.6275922334  TIP3      5718            0.0000000000
     39474      5910  TIP3      H2             17.7087885954       12.6954665375       42.3225334323  TIP3      5718            0.0000000000
     39475      5911  TIP3      OH2             7.7636116387        6.3149114140      -27.1087019519  TIP3      5719            0.0000000000
     39476      5911  TIP3      H1              7.6749998630        5.5034685846      -27.6659464022  TIP3      5719            0.0000000000
     39477      5911  TIP3      H2              7.4712825368        7.0545110671      -27.6963596486  TIP3      5719            0.0000000000
     39478      5912  TIP3      OH2             7.8854404123        4.2513039399      -28.8976060606  TIP3      5720            0.0000000000
     39479      5912  TIP3      H1              8.2621254125        4.6101981664      -29.7254119701  TIP3      5720            0.0000000000
     39480      5912  TIP3      H2              6.9677260170        4.0556351504      -29.2073160643  TIP3      5720            0.0000000000
     39481      5913  TIP3      OH2             8.8198390088       10.0466236632      -29.2588467101  TIP3      5721            0.0000000000
     39482      5913  TIP3      H1              9.5477617713       10.5030356771      -28.7997269521  TIP3      5721            0.0000000000
     39483      5913  TIP3      H2              8.2691606459       10.8051612727      -29.5569878131  TIP3      5721            0.0000000000
     39484      5914  TIP3      OH2             6.1428880089        6.8910359906      -24.9113416358  TIP3      5722            0.0000000000
     39485      5914  TIP3      H1              5.2650728349        6.5037177179      -25.1128437648  TIP3      5722            0.0000000000
     39486      5914  TIP3      H2              6.6720199330        6.5494805807      -25.6580992248  TIP3      5722            0.0000000000
     39487      5915  TIP3      OH2             8.6039728231        1.6825696017      -28.6339349528  TIP3      5723            0.0000000000
     39488      5915  TIP3      H1              8.3103899789        2.6150711910      -28.6705353859  TIP3      5723            0.0000000000
     39489      5915  TIP3      H2              7.9070201771        1.2500925966      -29.1522623715  TIP3      5723            0.0000000000
     39490      5916  TIP3      OH2             9.7805184896        6.3224423062      -24.9991872930  TIP3      5724            0.0000000000
     39491      5916  TIP3      H1              9.2618871360        6.2511959675      -24.1662598103  TIP3      5724            0.0000000000
     39492      5916  TIP3      H2              9.0627803348        6.2641858938      -25.6599529504  TIP3      5724            0.0000000000
     39493      5917  TIP3      OH2            12.1316024633        5.1529094664      -25.7672287791  TIP3      5725            0.0000000000
     39494      5917  TIP3      H1             11.2649218910        5.5119913691      -25.4678678967  TIP3      5725            0.0000000000
     39495      5917  TIP3      H2             12.0164846102        4.2091931291      -25.6106622707  TIP3      5725            0.0000000000
     39496      5918  TIP3      OH2             3.9087312633        5.2735269920      -24.5853990569  TIP3      5726            0.0000000000
     39497      5918  TIP3      H1              3.8852152462        4.4533289204      -25.1246528980  TIP3      5726            0.0000000000
     39498      5918  TIP3      H2              3.9750965640        4.9030867157      -23.6704872055  TIP3      5726            0.0000000000
     39499      5919  TIP3      OH2             8.6947210736        1.2037495710      -25.4832934080  TIP3      5727            0.0000000000
     39500      5919  TIP3      H1              9.2163905532        0.3770747314      -25.4604240853  TIP3      5727            0.0000000000
     39501      5919  TIP3      H2              8.6642608693        1.3139055746      -26.4466211183  TIP3      5727            0.0000000000
     39502      5920  TIP3      OH2             8.7194081390        2.8847932932      -23.0856372947  TIP3      5728            0.0000000000
     39503      5920  TIP3      H1              8.8556964439        2.3789182023      -23.9029257140  TIP3      5728            0.0000000000
     39504      5920  TIP3      H2              8.3515639092        3.7240089983      -23.4009506088  TIP3      5728            0.0000000000
     39505      5921  TIP3      OH2             8.4047246381       19.9157554220      -40.3885190492  TIP3      5729            0.0000000000
     39506      5921  TIP3      H1              9.2720827073       20.3381619828      -40.2895037780  TIP3      5729            0.0000000000
     39507      5921  TIP3      H2              8.4539473048       19.6613697224      -41.3220533669  TIP3      5729            0.0000000000
     39508      5922  TIP3      OH2             2.1136916936       14.1291857271      -41.2518347030  TIP3      5730            0.0000000000
     39509      5922  TIP3      H1              3.0703579118       14.3098518545      -41.1641460896  TIP3      5730            0.0000000000
     39510      5922  TIP3      H2              2.0891111926       13.8561159196      -42.1802457495  TIP3      5730            0.0000000000
     39511      5923  TIP3      OH2             0.9567155650       19.3114082285      -36.3417250122  TIP3      5731            0.0000000000
     39512      5923  TIP3      H1              0.1607452491       18.8386596483      -36.6730177327  TIP3      5731            0.0000000000
     39513      5923  TIP3      H2              1.1823489244       18.7567905548      -35.5704942672  TIP3      5731            0.0000000000
     39514      5924  TIP3      OH2             1.7037127320       17.6442877485      -34.2374897730  TIP3      5732            0.0000000000
     39515      5924  TIP3      H1              1.0233484714       17.0646538182      -33.8599152919  TIP3      5732            0.0000000000
     39516      5924  TIP3      H2              2.1476001580       17.9651941858      -33.4149570619  TIP3      5732            0.0000000000
     39517      5925  TIP3      OH2            19.2762311130       18.3234152410      -31.6695228684  TIP3      5733            0.0000000000
     39518      5925  TIP3      H1             19.5497727034       18.6203720005      -30.7879533604  TIP3      5733            0.0000000000
     39519      5925  TIP3      H2             19.8829699780       18.7879920345      -32.2581077163  TIP3      5733            0.0000000000
     39520      5926  TIP3      OH2            18.7940248168       18.2476651627      -28.7189565338  TIP3      5734            0.0000000000
     39521      5926  TIP3      H1             18.4320599576       17.3889419591      -29.0297707879  TIP3      5734            0.0000000000
     39522      5926  TIP3      H2             19.2785850405       17.9648972195      -27.9318243623  TIP3      5734            0.0000000000
     39523      5927  TIP3      OH2            16.9935446119       13.9737198402      -23.1608312295  TIP3      5735            0.0000000000
     39524      5927  TIP3      H1             17.0626175099       14.1007918415      -24.1183528936  TIP3      5735            0.0000000000
     39525      5927  TIP3      H2             17.4697493416       14.7869238877      -22.8648671192  TIP3      5735            0.0000000000
     39526      5928  TIP3      OH2            18.5641965110       12.1157911764      -38.5050033661  TIP3      5736            0.0000000000
     39527      5928  TIP3      H1             19.3392213040       12.7061545900      -38.3621408321  TIP3      5736            0.0000000000
     39528      5928  TIP3      H2             18.5751160174       11.6179097125      -37.6575015096  TIP3      5736            0.0000000000
     39529      5929  TIP3      OH2            18.9215156212       10.3919803401      -36.3982649155  TIP3      5737            0.0000000000
     39530      5929  TIP3      H1             18.1720603084        9.8913764682      -35.9927674204  TIP3      5737            0.0000000000
     39531      5929  TIP3      H2             19.5565334804       10.4310043361      -35.6412918147  TIP3      5737            0.0000000000
     39532      5930  TIP3      OH2            18.6854783422       12.9666327756      -31.4857573728  TIP3      5738            0.0000000000
     39533      5930  TIP3      H1             19.3650609506       12.3099084137      -31.7594239963  TIP3      5738            0.0000000000
     39534      5930  TIP3      H2             19.1008829951       13.8179211811      -31.7221970520  TIP3      5738            0.0000000000
     39535      5931  TIP3      OH2            17.3282601849       15.7751124838      -29.2957007570  TIP3      5739            0.0000000000
     39536      5931  TIP3      H1             16.6431817152       16.1929734897      -28.7441499246  TIP3      5739            0.0000000000
     39537      5931  TIP3      H2             16.8660490463       15.6463847824      -30.1485308701  TIP3      5739            0.0000000000
     39538      5932  TIP3      OH2            19.2452591568       10.2984345094      -40.3839900607  TIP3      5740            0.0000000000
     39539      5932  TIP3      H1             18.5670806822       10.6583473986      -40.9929256960  TIP3      5740            0.0000000000
     39540      5932  TIP3      H2             19.1413364040       10.9645902995      -39.6652231193  TIP3      5740            0.0000000000
     39541      5933  TIP3      OH2            16.7153600394        7.1882430637      -41.3498271639  TIP3      5741            0.0000000000
     39542      5933  TIP3      H1             17.5061127272        7.6019422108      -41.7300172580  TIP3      5741            0.0000000000
     39543      5933  TIP3      H2             16.7486345786        6.3170425965      -41.7965093269  TIP3      5741            0.0000000000
     39544      5934  TIP3      OH2            16.9832987244        8.8045867658      -35.5765515794  TIP3      5742            0.0000000000
     39545      5934  TIP3      H1             16.7413287565        7.9027982050      -35.8523291091  TIP3      5742            0.0000000000
     39546      5934  TIP3      H2             16.6117379721        8.8383891375      -34.6635118217  TIP3      5742            0.0000000000
     39547      5935  TIP3      OH2             1.6336178442       11.0650819968      -31.7010639008  TIP3      5743            0.0000000000
     39548      5935  TIP3      H1              1.5735627095       10.8341726684      -32.6471149289  TIP3      5743            0.0000000000
     39549      5935  TIP3      H2              2.5381748548       10.7323180481      -31.4811088728  TIP3      5743            0.0000000000
     39550      5936  TIP3      OH2            17.6799081876       10.7510340736      -26.0042986141  TIP3      5744            0.0000000000
     39551      5936  TIP3      H1             18.3239310859       10.1023196778      -25.6568001108  TIP3      5744            0.0000000000
     39552      5936  TIP3      H2             18.2030566485       11.5568002863      -26.1773002898  TIP3      5744            0.0000000000
     39553      5937  TIP3      OH2            18.6389859345        7.9506346148      -25.8613885951  TIP3      5745            0.0000000000
     39554      5937  TIP3      H1             18.0217394597        7.5223439266      -26.4615558378  TIP3      5745            0.0000000000
     39555      5937  TIP3      H2             19.3453089462        7.2779899731      -25.7282943433  TIP3      5745            0.0000000000
     39556      5938  TIP3      OH2            16.8085672350        4.7890806047      -42.7439351398  TIP3      5746            0.0000000000
     39557      5938  TIP3      H1             17.4653352685        4.3988856399      -42.1175376632  TIP3      5746            0.0000000000
     39558      5938  TIP3      H2             15.9612615030        4.6756317947      -42.2802453995  TIP3      5746            0.0000000000
     39559      5939  TIP3      OH2            16.1821875522        6.3742127158      -37.2542366623  TIP3      5747            0.0000000000
     39560      5939  TIP3      H1             16.5409786097        5.4917745088      -37.0277589146  TIP3      5747            0.0000000000
     39561      5939  TIP3      H2             16.6764509716        6.5251435806      -38.0836342646  TIP3      5747            0.0000000000
     39562      5940  TIP3      OH2            17.2329282120        7.2037237090      -31.6905466099  TIP3      5748            0.0000000000
     39563      5940  TIP3      H1             18.2155001879        7.2517995266      -31.5949583381  TIP3      5748            0.0000000000
     39564      5940  TIP3      H2             16.9750024602        7.1688665410      -30.7538037325  TIP3      5748            0.0000000000
     39565      5941  TIP3      OH2            16.9411990719        7.8134919423      -29.0678131711  TIP3      5749            0.0000000000
     39566      5941  TIP3      H1             16.3039677637        7.9407765246      -28.3442907936  TIP3      5749            0.0000000000
     39567      5941  TIP3      H2             17.5645985654        8.5471376730      -28.9198604864  TIP3      5749            0.0000000000
     39568      5942  TIP3      OH2             1.6588535654        5.9928015938      -25.7497296333  TIP3      5750            0.0000000000
     39569      5942  TIP3      H1              2.5069925397        5.8799405792      -25.2658510421  TIP3      5750            0.0000000000
     39570      5942  TIP3      H2              1.1185755900        5.2524786681      -25.4066759673  TIP3      5750            0.0000000000
     39571      5943  TIP3      OH2            19.0922917349        1.8940741773      -24.2457827167  TIP3      5751            0.0000000000
     39572      5943  TIP3      H1             19.6433820922        1.2007881912      -24.6580169000  TIP3      5751            0.0000000000
     39573      5943  TIP3      H2             19.3160940069        2.6407826064      -24.8388423804  TIP3      5751            0.0000000000
     39574      5944  TIP3      OH2            17.1055057384        3.7423058937      -37.3683767271  TIP3      5752            0.0000000000
     39575      5944  TIP3      H1             17.4555066718        3.3555181515      -36.5314462217  TIP3      5752            0.0000000000
     39576      5944  TIP3      H2             16.5682459787        3.0045255740      -37.7305327964  TIP3      5752            0.0000000000
     39577      5945  TIP3      OH2             2.7083886373        4.5435884192      -32.5349946557  TIP3      5753            0.0000000000
     39578      5945  TIP3      H1              2.9726117631        3.6074736359      -32.4262694532  TIP3      5753            0.0000000000
     39579      5945  TIP3      H2              3.5599968308        5.0000701538      -32.4216205969  TIP3      5753            0.0000000000
     39580      5946  TIP3      OH2             1.2070186902        7.3324473104      -31.5021234950  TIP3      5754            0.0000000000
     39581      5946  TIP3      H1              1.7857423370        6.9175505811      -32.1491723291  TIP3      5754            0.0000000000
     39582      5946  TIP3      H2              1.7029227633        8.1215151589      -31.2405041741  TIP3      5754            0.0000000000
     39583      5947  TIP3      OH2            18.8870221328        3.6386716780      -26.2400588798  TIP3      5755            0.0000000000
     39584      5947  TIP3      H1             18.0206372877        4.1046570619      -26.2005174311  TIP3      5755            0.0000000000
     39585      5947  TIP3      H2             18.6566946878        2.8566284700      -26.7911388378  TIP3      5755            0.0000000000
     39586      5948  TIP3      OH2            18.9078687692        3.9311351325      -40.9636888347  TIP3      5756            0.0000000000
     39587      5948  TIP3      H1             19.4034105260        3.3703705594      -41.5742686596  TIP3      5756            0.0000000000
     39588      5948  TIP3      H2             19.5978318413        4.5292141779      -40.6170259314  TIP3      5756            0.0000000000
     39589      5949  TIP3      OH2             1.3016196125        3.6358345075      -37.7240926104  TIP3      5757            0.0000000000
     39590      5949  TIP3      H1              0.3398194871        3.6588993167      -37.6664897780  TIP3      5757            0.0000000000
     39591      5949  TIP3      H2              1.4278009427        4.0689849237      -38.5907983842  TIP3      5757            0.0000000000
     39592      5950  TIP3      OH2            16.0570289482       18.8446326972      -35.5749447935  TIP3      5758            0.0000000000
     39593      5950  TIP3      H1             16.7371710647       18.5324653231      -36.2014232072  TIP3      5758            0.0000000000
     39594      5950  TIP3      H2             16.5582417030       19.3511555293      -34.9058114365  TIP3      5758            0.0000000000
     39595      5951  TIP3      OH2             1.4517089689        2.3966805650      -29.3545434517  TIP3      5759            0.0000000000
     39596      5951  TIP3      H1              0.6095523736        2.0301597644      -29.0257757431  TIP3      5759            0.0000000000
     39597      5951  TIP3      H2              1.1091722694        3.0293238452      -29.9999548714  TIP3      5759            0.0000000000
     39598      5952  TIP3      OH2             3.6331600704       15.3685466883      -25.4138328444  TIP3      5760            0.0000000000
     39599      5952  TIP3      H1              2.7809205411       15.7614068313      -25.6335675322  TIP3      5760            0.0000000000
     39600      5952  TIP3      H2              3.3923099425       14.4669516180      -25.1709391107  TIP3      5760            0.0000000000
     39601      5953  TIP3      OH2             6.3466290596       17.0375827979      -28.8444653320  TIP3      5761            0.0000000000
     39602      5953  TIP3      H1              6.4219889166       17.9503245006      -29.2019541143  TIP3      5761            0.0000000000
     39603      5953  TIP3      H2              7.2888008956       16.7845096543      -28.9001915400  TIP3      5761            0.0000000000
     39604      5954  TIP3      OH2            10.5361009335       18.1013348320      -26.3804637340  TIP3      5762            0.0000000000
     39605      5954  TIP3      H1             10.6753963050       17.8104282121      -25.4591609781  TIP3      5762            0.0000000000
     39606      5954  TIP3      H2             11.4063088020       18.5439984753      -26.5459417924  TIP3      5762            0.0000000000
     39607      5955  TIP3      OH2            12.8359350829       19.3929709481      -26.6967231521  TIP3      5763            0.0000000000
     39608      5955  TIP3      H1             13.5375891494       18.9013817959      -27.1456593969  TIP3      5763            0.0000000000
     39609      5955  TIP3      H2             13.3243445860       19.9392647157      -26.0573058446  TIP3      5763            0.0000000000
     39610      5956  TIP3      OH2            17.8891522392        1.6109978060      -27.6729120789  TIP3      5764            0.0000000000
     39611      5956  TIP3      H1             16.9979474174        1.7918736077      -27.9961126848  TIP3      5764            0.0000000000
     39612      5956  TIP3      H2             18.1142193240        0.7825229852      -28.1678704912  TIP3      5764            0.0000000000
     39613      5957  TIP3      OH2             3.8012963573       20.0071672152      -29.1464363350  TIP3      5765            0.0000000000
     39614      5957  TIP3      H1              3.0385330479       20.6040534713      -29.2899152703  TIP3      5765            0.0000000000
     39615      5957  TIP3      H2              3.7647485850       19.8279780273      -28.1926238422  TIP3      5765            0.0000000000
     39616      5958  TIP3      OH2             6.3205795936       19.4414847634      -29.9311888114  TIP3      5766            0.0000000000
     39617      5958  TIP3      H1              5.4080789848       19.6223809014      -29.6007355873  TIP3      5766            0.0000000000
     39618      5958  TIP3      H2              6.2443463677       19.7941708034      -30.8297434995  TIP3      5766            0.0000000000
     39619      5959  TIP3      OH2            10.7771847298       19.0154125472      -30.7077470260  TIP3      5767            0.0000000000
     39620      5959  TIP3      H1             10.3749677655       19.4406226283      -31.4801097473  TIP3      5767            0.0000000000
     39621      5959  TIP3      H2             10.9855162784       19.7987429498      -30.1547571374  TIP3      5767            0.0000000000
     39622      5960  TIP3      OH2            13.0364290445       17.8556154520      -29.3866266992  TIP3      5768            0.0000000000
     39623      5960  TIP3      H1             12.3907639059       18.3157883309      -29.9549317548  TIP3      5768            0.0000000000
     39624      5960  TIP3      H2             13.8199403461       18.4328469321      -29.5096256443  TIP3      5768            0.0000000000
     39625      5961  TIP3      OH2            15.4063715905       19.2651448804      -29.6683662754  TIP3      5769            0.0000000000
     39626      5961  TIP3      H1             15.6252926603       20.2110743173      -29.6623741696  TIP3      5769            0.0000000000
     39627      5961  TIP3      H2             15.8020316621       18.9894804552      -30.5235361881  TIP3      5769            0.0000000000
     39628      5962  TIP3      OH2             3.3938518531       18.4511305794      -32.1506113811  TIP3      5770            0.0000000000
     39629      5962  TIP3      H1              3.1480543973       17.8830602838      -31.3897136181  TIP3      5770            0.0000000000
     39630      5962  TIP3      H2              4.2753448655       18.0789754909      -32.3869147331  TIP3      5770            0.0000000000
     39631      5963  TIP3      OH2             5.5835168013       17.4254905656      -33.3368505539  TIP3      5771            0.0000000000
     39632      5963  TIP3      H1              5.5042342381       16.4734180636      -33.1559880943  TIP3      5771            0.0000000000
     39633      5963  TIP3      H2              6.4905186455       17.5872825463      -32.9929984218  TIP3      5771            0.0000000000
     39634      5964  TIP3      OH2             7.8752624976       17.4231361947      -32.0230598408  TIP3      5772            0.0000000000
     39635      5964  TIP3      H1              8.1698506883       16.5012722558      -32.1607399276  TIP3      5772            0.0000000000
     39636      5964  TIP3      H2              8.1497448611       17.5734021433      -31.1014354882  TIP3      5772            0.0000000000
     39637      5965  TIP3      OH2            10.4608924270        3.5937029428      -32.9400703343  TIP3      5773            0.0000000000
     39638      5965  TIP3      H1              9.9959857747        2.7375075735      -32.8245777118  TIP3      5773            0.0000000000
     39639      5965  TIP3      H2             11.1945805903        3.3631966480      -33.5206140964  TIP3      5773            0.0000000000
     39640      5966  TIP3      OH2            16.3945968820        1.4912647716      -33.3230542069  TIP3      5774            0.0000000000
     39641      5966  TIP3      H1             16.9317273922        2.0532154439      -33.9287520907  TIP3      5774            0.0000000000
     39642      5966  TIP3      H2             15.4909818351        1.6186652618      -33.6796953785  TIP3      5774            0.0000000000
     39643      5967  TIP3      OH2            18.1072531068        2.6347534688      -35.1550974953  TIP3      5775            0.0000000000
     39644      5967  TIP3      H1             18.6676217711        1.9214678464      -35.5514311839  TIP3      5775            0.0000000000
     39645      5967  TIP3      H2             18.7654305827        3.3593584176      -35.0325863169  TIP3      5775            0.0000000000
     39646      5968  TIP3      OH2             3.7127926846        1.4970021285      -35.3125186573  TIP3      5776            0.0000000000
     39647      5968  TIP3      H1              2.9326120098        1.4137526192      -35.8965611258  TIP3      5776            0.0000000000
     39648      5968  TIP3      H2              4.1819389911        0.6494551775      -35.4933906603  TIP3      5776            0.0000000000
     39649      5969  TIP3      OH2             2.3276851898        1.6345772973      -39.8601936549  TIP3      5777            0.0000000000
     39650      5969  TIP3      H1              3.0135604435        2.1733777616      -40.3223632347  TIP3      5777            0.0000000000
     39651      5969  TIP3      H2              1.9980309459        2.2625004773      -39.1974822159  TIP3      5777            0.0000000000
     39652      5970  TIP3      OH2             7.9593666792        1.5898099096      -35.6804883243  TIP3      5778            0.0000000000
     39653      5970  TIP3      H1              8.8118508154        1.2749121276      -36.0305435211  TIP3      5778            0.0000000000
     39654      5970  TIP3      H2              8.1970463894        1.8064686146      -34.7657267912  TIP3      5778            0.0000000000
     39655      5971  TIP3      OH2            13.6417521315        2.0087536333      -34.1238933900  TIP3      5779            0.0000000000
     39656      5971  TIP3      H1             13.5681496416        1.9306437859      -35.0807478742  TIP3      5779            0.0000000000
     39657      5971  TIP3      H2             13.1929238354        1.1716909104      -33.8670958889  TIP3      5779            0.0000000000
     39658      5972  TIP3      OH2            15.5054389288        1.6764940838      -38.8214080306  TIP3      5780            0.0000000000
     39659      5972  TIP3      H1             14.8727438263        1.6899532413      -39.5603822773  TIP3      5780            0.0000000000
     39660      5972  TIP3      H2             15.0890379573        1.0046411022      -38.2339776002  TIP3      5780            0.0000000000
     39661      5973  TIP3      OH2             2.5017316118       17.8589096964      -38.9040280756  TIP3      5781            0.0000000000
     39662      5973  TIP3      H1              1.5857708009       17.8453468192      -39.2512368195  TIP3      5781            0.0000000000
     39663      5973  TIP3      H2              2.6770589192       18.8023258709      -39.1063730983  TIP3      5781            0.0000000000
     39664      5974  TIP3      OH2             4.1693262784        2.9280190579      -41.2991100219  TIP3      5782            0.0000000000
     39665      5974  TIP3      H1              5.0020973099        2.4528665001      -41.4609151294  TIP3      5782            0.0000000000
     39666      5974  TIP3      H2              4.4896880378        3.8160314329      -41.0759322139  TIP3      5782            0.0000000000
     39667      5975  TIP3      OH2             9.3617196590        4.1490754587      -38.7901185537  TIP3      5783            0.0000000000
     39668      5975  TIP3      H1              9.9286586821        3.5240300895      -38.3034749131  TIP3      5783            0.0000000000
     39669      5975  TIP3      H2              9.6001168802        4.9941531700      -38.3512329234  TIP3      5783            0.0000000000
     39670      5976  TIP3      OH2            11.3449754962       19.8117885039      -40.6943474450  TIP3      5784            0.0000000000
     39671      5976  TIP3      H1             12.1405292379       20.0558164350      -41.2039793106  TIP3      5784            0.0000000000
     39672      5976  TIP3      H2             11.4139922577       18.8349005706      -40.7938928272  TIP3      5784            0.0000000000
     39673      5977  TIP3      OH2            17.7791618993       17.9391729780      -37.4126845623  TIP3      5785            0.0000000000
     39674      5977  TIP3      H1             17.7067034800       17.1491337907      -38.0113822012  TIP3      5785            0.0000000000
     39675      5977  TIP3      H2             17.7425209971       18.6639677625      -38.0729106727  TIP3      5785            0.0000000000
     39676      5978  TIP3      OH2             3.4445377368        2.5940913768      -25.7429121197  TIP3      5786            0.0000000000
     39677      5978  TIP3      H1              3.0343104857        1.7150233240      -25.8175419508  TIP3      5786            0.0000000000
     39678      5978  TIP3      H2              4.3657290828        2.3531038538      -25.5173869448  TIP3      5786            0.0000000000
     39679      5979  TIP3      OH2             5.5408432040        1.7093416237      -24.1173774833  TIP3      5787            0.0000000000
     39680      5979  TIP3      H1              6.4706048061        1.8393154469      -24.3932631550  TIP3      5787            0.0000000000
     39681      5979  TIP3      H2              5.5900322650        0.8234724571      -23.7460075541  TIP3      5787            0.0000000000
     39682      5980  TIP3      OH2             4.3785630622       18.7554130585      -41.7696913388  TIP3      5788            0.0000000000
     39683      5980  TIP3      H1              3.7224753236       19.1494168013      -41.1739539782  TIP3      5788            0.0000000000
     39684      5980  TIP3      H2              4.5480757436       17.8954530548      -41.3595490499  TIP3      5788            0.0000000000
     39685      5981  TIP3      OH2            13.5083372046        0.8813143583      -24.1687148198  TIP3      5789            0.0000000000
     39686      5981  TIP3      H1             13.3905159883        0.2649672398      -23.4180120090  TIP3      5789            0.0000000000
     39687      5981  TIP3      H2             14.4779115969        0.8562823008      -24.2903984480  TIP3      5789            0.0000000000
     39688      5982  TIP3      OH2            17.6819598367       17.5002801006      -25.9595008576  TIP3      5790            0.0000000000
     39689      5982  TIP3      H1             16.9543693599       17.4104794860      -26.6138371562  TIP3      5790            0.0000000000
     39690      5982  TIP3      H2             17.2720003401       18.1101325415      -25.3245520414  TIP3      5790            0.0000000000
     39691      5983  TIP3      OH2            31.9091513337       11.1899324383      -35.6564029753  TIP3      5791            0.0000000000
     39692      5983  TIP3      H1             31.5371853516       12.0540849513      -35.9448027803  TIP3      5791            0.0000000000
     39693      5983  TIP3      H2             31.2140054673       10.5731631247      -35.9222505612  TIP3      5791            0.0000000000
     39694      5984  TIP3      OH2            30.6360073813        9.8571562280      -32.4078515410  TIP3      5792            0.0000000000
     39695      5984  TIP3      H1             30.5491382268        9.5352632808      -31.4983934254  TIP3      5792            0.0000000000
     39696      5984  TIP3      H2             29.7868686159        9.6257054051      -32.8031284927  TIP3      5792            0.0000000000
     39697      5985  TIP3      OH2            22.5790983646        9.7448646816      -30.8644900316  TIP3      5793            0.0000000000
     39698      5985  TIP3      H1             22.4821087353        8.9894885285      -30.2499582062  TIP3      5793            0.0000000000
     39699      5985  TIP3      H2             22.9886278074       10.3847232988      -30.2387278156  TIP3      5793            0.0000000000
     39700      5986  TIP3      OH2            34.0975517536       13.3320431225      -33.7969248683  TIP3      5794            0.0000000000
     39701      5986  TIP3      H1             33.7803212752       12.6063211645      -33.2358059517  TIP3      5794            0.0000000000
     39702      5986  TIP3      H2             34.2575036162       13.9973199733      -33.1039873605  TIP3      5794            0.0000000000
     39703      5987  TIP3      OH2            23.9874608885       14.8208795209      -32.8831084841  TIP3      5795            0.0000000000
     39704      5987  TIP3      H1             23.5943632483       13.9306651772      -32.9151801163  TIP3      5795            0.0000000000
     39705      5987  TIP3      H2             24.9305565623       14.5663617623      -32.8034897208  TIP3      5795            0.0000000000
     39706      5988  TIP3      OH2            20.3580837613        7.8520153704      -36.7186727974  TIP3      5796            0.0000000000
     39707      5988  TIP3      H1             20.0649392065        8.7594191357      -36.5359498218  TIP3      5796            0.0000000000
     39708      5988  TIP3      H2             19.5667821490        7.4566999545      -37.1340635219  TIP3      5796            0.0000000000
     39709      5989  TIP3      OH2            20.8002700497       10.3309469881      -34.3941216512  TIP3      5797            0.0000000000
     39710      5989  TIP3      H1             21.0685631765        9.3837033708      -34.3232143832  TIP3      5797            0.0000000000
     39711      5989  TIP3      H2             21.6407359880       10.8055037578      -34.2496477560  TIP3      5797            0.0000000000
     39712      5990  TIP3      OH2            31.3668972381       18.6777127183      -33.8042627558  TIP3      5798            0.0000000000
     39713      5990  TIP3      H1             31.9420026316       17.9957158412      -34.2369872647  TIP3      5798            0.0000000000
     39714      5990  TIP3      H2             31.1352821810       18.1868100112      -33.0111748540  TIP3      5798            0.0000000000
     39715      5991  TIP3      OH2            28.8783318998       12.9124933052      -31.2183529499  TIP3      5799            0.0000000000
     39716      5991  TIP3      H1             29.1329278761       12.9385860233      -32.1457229832  TIP3      5799            0.0000000000
     39717      5991  TIP3      H2             29.7645810534       12.8597868603      -30.7788866854  TIP3      5799            0.0000000000
     39718      5992  TIP3      OH2            31.7111374399        7.1253001345      -31.2489352345  TIP3      5800            0.0000000000
     39719      5992  TIP3      H1             32.0334741725        6.2161028652      -31.1586747716  TIP3      5800            0.0000000000
     39720      5992  TIP3      H2             31.7996335508        7.2719122407      -32.2113506075  TIP3      5800            0.0000000000
     39721      5993  TIP3      OH2            25.0720477609        5.1683787050      -34.5009082827  TIP3      5801            0.0000000000
     39722      5993  TIP3      H1             25.4000029526        5.9306647358      -35.0185178944  TIP3      5801            0.0000000000
     39723      5993  TIP3      H2             24.5917044222        4.6711823223      -35.1946258482  TIP3      5801            0.0000000000
     39724      5994  TIP3      OH2            33.1415755872        5.3935275668      -36.3435792480  TIP3      5802            0.0000000000
     39725      5994  TIP3      H1             33.6505535762        5.1532001218      -35.5313064878  TIP3      5802            0.0000000000
     39726      5994  TIP3      H2             32.2797784648        5.6843105534      -35.9598104860  TIP3      5802            0.0000000000
     39727      5995  TIP3      OH2            21.6469129463        7.7676714862      -33.7039762215  TIP3      5803            0.0000000000
     39728      5995  TIP3      H1             22.1625434936        7.2905201821      -33.0340350788  TIP3      5803            0.0000000000
     39729      5995  TIP3      H2             21.9874311923        7.3324455563      -34.5206825188  TIP3      5803            0.0000000000
     39730      5996  TIP3      OH2            26.6505511888        9.3833820123      -34.0557867857  TIP3      5804            0.0000000000
     39731      5996  TIP3      H1             27.4270852982        8.9275493116      -33.6576895817  TIP3      5804            0.0000000000
     39732      5996  TIP3      H2             26.4522155726        8.6555487749      -34.6915011216  TIP3      5804            0.0000000000
     39733      5997  TIP3      OH2            23.9974040563        4.1269893295      -30.1997808285  TIP3      5805            0.0000000000
     39734      5997  TIP3      H1             23.7594583367        4.6964841056      -30.9609790964  TIP3      5805            0.0000000000
     39735      5997  TIP3      H2             23.2645178072        4.3764496167      -29.5820191766  TIP3      5805            0.0000000000
     39736      5998  TIP3      OH2            31.0456625728       13.5288140805      -36.7808231024  TIP3      5806            0.0000000000
     39737      5998  TIP3      H1             30.8485180936       13.6098061321      -37.7341390022  TIP3      5806            0.0000000000
     39738      5998  TIP3      H2             30.7051115536       14.4096639452      -36.4805535952  TIP3      5806            0.0000000000
     39739      5999  TIP3      OH2            26.5463250806       11.7462917953      -30.3040867599  TIP3      5807            0.0000000000
     39740      5999  TIP3      H1             25.9213778318       12.4373694204      -29.9633233970  TIP3      5807            0.0000000000
     39741      5999  TIP3      H2             27.3412311701       12.2921242989      -30.5143927179  TIP3      5807            0.0000000000
     39742      6000  TIP3      OH2            34.4682836618        4.9661214514      -33.9323864393  TIP3      5808            0.0000000000
     39743      6000  TIP3      H1             34.4171317511        4.0526382125      -33.6239143535  TIP3      5808            0.0000000000
     39744      6000  TIP3      H2             35.2058070085        5.3367524857      -33.4262536287  TIP3      5808            0.0000000000
     39745      6001  TIP3      OH2            23.8308496913        6.0321364367      -32.2676329193  TIP3      5809            0.0000000000
     39746      6001  TIP3      H1             24.3912265263        6.7505632166      -31.8908286832  TIP3      5809            0.0000000000
     39747      6001  TIP3      H2             24.3479610546        5.7765671680      -33.0696590064  TIP3      5809            0.0000000000
     39748      6002  TIP3      OH2            25.2061327077       13.9587357454      -29.4561126267  TIP3      5810            0.0000000000
     39749      6002  TIP3      H1             24.9582436364       14.8598100993      -29.7246139101  TIP3      5810            0.0000000000
     39750      6002  TIP3      H2             24.4048060885       13.7261138183      -28.9224289975  TIP3      5810            0.0000000000
     39751      6003  TIP3      OH2            20.9257003008       13.3506462226      -38.4086069408  TIP3      5811            0.0000000000
     39752      6003  TIP3      H1             20.9665452795       13.8898906518      -39.2270560067  TIP3      5811            0.0000000000
     39753      6003  TIP3      H2             21.0007276912       14.0227642802      -37.7013102694  TIP3      5811            0.0000000000
     39754      6004  TIP3      OH2            34.5988773977       15.1515702546      -31.5772894864  TIP3      5812            0.0000000000
     39755      6004  TIP3      H1             33.6848914100       15.1555642837      -31.2022896635  TIP3      5812            0.0000000000
     39756      6004  TIP3      H2             34.7335928419       16.1060690534      -31.7130614550  TIP3      5812            0.0000000000
     39757      6005  TIP3      OH2            35.1311228868        3.6008887704      -31.1598041288  TIP3      5813            0.0000000000
     39758      6005  TIP3      H1             34.3225473233        3.9758618273      -31.5611938381  TIP3      5813            0.0000000000
     39759      6005  TIP3      H2             35.7328261004        4.3386111163      -31.3458831281  TIP3      5813            0.0000000000
     39760      6006  TIP3      OH2            27.7348955016        1.3782446117      -32.5576286182  TIP3      5814            0.0000000000
     39761      6006  TIP3      H1             27.1601295182        0.6417736988      -32.7994232620  TIP3      5814            0.0000000000
     39762      6006  TIP3      H2             27.0494837027        2.0751133678      -32.4175585785  TIP3      5814            0.0000000000
     39763      6007  TIP3      OH2            32.9584194413       16.9244771657      -34.9709271907  TIP3      5815            0.0000000000
     39764      6007  TIP3      H1             33.1566920851       16.0226252345      -35.3014386226  TIP3      5815            0.0000000000
     39765      6007  TIP3      H2             33.6936062080       17.4073221991      -35.4081014758  TIP3      5815            0.0000000000
     39766      6008  TIP3      OH2            34.0366349661       14.7580842964      -36.3718261288  TIP3      5816            0.0000000000
     39767      6008  TIP3      H1             33.8570292166       14.1223809342      -37.0877969284  TIP3      5816            0.0000000000
     39768      6008  TIP3      H2             34.1120466735       14.1437513677      -35.6065423115  TIP3      5816            0.0000000000
     39769      6009  TIP3      OH2            35.4937521202       13.1416911181      -27.8258236902  TIP3      5817            0.0000000000
     39770      6009  TIP3      H1             35.4310745775       12.6356442831      -28.6622247549  TIP3      5817            0.0000000000
     39771      6009  TIP3      H2             35.6267945887       14.0588566557      -28.1374912333  TIP3      5817            0.0000000000
     39772      6010  TIP3      OH2            30.2724265752       10.5165426527      -38.2942208461  TIP3      5818            0.0000000000
     39773      6010  TIP3      H1             29.5299928918       11.1082446595      -38.5230276262  TIP3      5818            0.0000000000
     39774      6010  TIP3      H2             31.0378770640       11.1174092914      -38.3717758637  TIP3      5818            0.0000000000
     39775      6011  TIP3      OH2            30.4919774685        9.4734631719      -40.9569871399  TIP3      5819            0.0000000000
     39776      6011  TIP3      H1             31.1533393794        9.8189095550      -40.3191248328  TIP3      5819            0.0000000000
     39777      6011  TIP3      H2             31.0854184190        9.0554217170      -41.6021363978  TIP3      5819            0.0000000000
     39778      6012  TIP3      OH2            34.1154205940       10.8440970484      -37.1886511752  TIP3      5820            0.0000000000
     39779      6012  TIP3      H1             33.3510224568       11.0449301508      -36.5955848674  TIP3      5820            0.0000000000
     39780      6012  TIP3      H2             34.5535362993       10.1327194568      -36.6714265123  TIP3      5820            0.0000000000
     39781      6013  TIP3      OH2            33.6242599753        8.7056906956      -28.3673317112  TIP3      5821            0.0000000000
     39782      6013  TIP3      H1             33.8490102677        9.5786142111      -28.0218359431  TIP3      5821            0.0000000000
     39783      6013  TIP3      H2             32.8895612763        8.9599296390      -28.9547763638  TIP3      5821            0.0000000000
     39784      6014  TIP3      OH2            25.2393894144       11.0827449134      -35.4919289923  TIP3      5822            0.0000000000
     39785      6014  TIP3      H1             25.1632328704       10.6610117805      -36.3733266675  TIP3      5822            0.0000000000
     39786      6014  TIP3      H2             25.8203355020       10.4505457461      -35.0174033778  TIP3      5822            0.0000000000
     39787      6015  TIP3      OH2            26.6934801163       14.3593060665      -32.7061940058  TIP3      5823            0.0000000000
     39788      6015  TIP3      H1             26.9930856037       14.1432345441      -33.5997636102  TIP3      5823            0.0000000000
     39789      6015  TIP3      H2             27.3228093229       13.9012790555      -32.1170359457  TIP3      5823            0.0000000000
     39790      6016  TIP3      OH2            25.4752473827        9.7763958839      -31.6586694920  TIP3      5824            0.0000000000
     39791      6016  TIP3      H1             25.7813559304        9.8692705623      -32.5869367158  TIP3      5824            0.0000000000
     39792      6016  TIP3      H2             25.9972290311       10.4781963987      -31.2006988440  TIP3      5824            0.0000000000
     39793      6017  TIP3      OH2            32.1313673032       15.4346914717      -30.7257987352  TIP3      5825            0.0000000000
     39794      6017  TIP3      H1             32.0241563264       16.2257204788      -30.1581947291  TIP3      5825            0.0000000000
     39795      6017  TIP3      H2             31.5455181074       14.7908189011      -30.2814065700  TIP3      5825            0.0000000000
     39796      6018  TIP3      OH2            26.8832275344       14.3177481758      -27.3236295583  TIP3      5826            0.0000000000
     39797      6018  TIP3      H1             26.0893261714       14.7584502169      -26.9411359302  TIP3      5826            0.0000000000
     39798      6018  TIP3      H2             26.5183113972       14.0402631913      -28.1886345610  TIP3      5826            0.0000000000
     39799      6019  TIP3      OH2            32.7918243334       10.0843971346      -39.3898609509  TIP3      5827            0.0000000000
     39800      6019  TIP3      H1             33.3483924696       10.4097133777      -38.6429563419  TIP3      5827            0.0000000000
     39801      6019  TIP3      H2             33.2071248394       10.5427197105      -40.1545417596  TIP3      5827            0.0000000000
     39802      6020  TIP3      OH2            23.3283184138       10.6502143399      -28.4655375580  TIP3      5828            0.0000000000
     39803      6020  TIP3      H1             23.7712819175       10.5876804064      -27.5977589794  TIP3      5828            0.0000000000
     39804      6020  TIP3      H2             22.4454981774       10.3144509870      -28.1944432213  TIP3      5828            0.0000000000
     39805      6021  TIP3      OH2            30.3058736391       15.9815440817      -36.1531289816  TIP3      5829            0.0000000000
     39806      6021  TIP3      H1             30.3746686873       16.5366370406      -35.3661561942  TIP3      5829            0.0000000000
     39807      6021  TIP3      H2             29.7808307300       16.5075907378      -36.7782615697  TIP3      5829            0.0000000000
     39808      6022  TIP3      OH2            24.8435946359       15.7959869077      -26.2723624939  TIP3      5830            0.0000000000
     39809      6022  TIP3      H1             24.7759052649       16.4659560650      -26.9793293706  TIP3      5830            0.0000000000
     39810      6022  TIP3      H2             23.9070483725       15.7045194056      -25.9991194243  TIP3      5830            0.0000000000
     39811      6023  TIP3      OH2            36.2754534025        1.3796865261      -39.6857224952  TIP3      5831            0.0000000000
     39812      6023  TIP3      H1             35.3541031353        1.3935546879      -39.3707797720  TIP3      5831            0.0000000000
     39813      6023  TIP3      H2             36.1265988677        1.3612731577      -40.6392109399  TIP3      5831            0.0000000000
     39814      6024  TIP3      OH2            24.2937133809       10.0557713083      -38.0469632377  TIP3      5832            0.0000000000
     39815      6024  TIP3      H1             23.8061616755       10.8399905245      -38.3811488995  TIP3      5832            0.0000000000
     39816      6024  TIP3      H2             23.6557543820        9.3388717207      -38.1191766688  TIP3      5832            0.0000000000
     39817      6025  TIP3      OH2            20.5890181558       12.8480396729      -29.0355145477  TIP3      5833            0.0000000000
     39818      6025  TIP3      H1             19.9069270516       12.7381094578      -29.7164773267  TIP3      5833            0.0000000000
     39819      6025  TIP3      H2             20.9132149826       11.9263378733      -28.9673308956  TIP3      5833            0.0000000000
     39820      6026  TIP3      OH2            20.4698747972       15.1937887987      -32.1533837530  TIP3      5834            0.0000000000
     39821      6026  TIP3      H1             21.2235525876       14.7792566665      -31.7112741584  TIP3      5834            0.0000000000
     39822      6026  TIP3      H2             20.4038206511       16.0092130158      -31.6370102139  TIP3      5834            0.0000000000
     39823      6027  TIP3      OH2            29.3593499474       15.4535718908      -27.4411348837  TIP3      5835            0.0000000000
     39824      6027  TIP3      H1             29.4545549731       16.1978714028      -26.8178515809  TIP3      5835            0.0000000000
     39825      6027  TIP3      H2             28.4753651111       15.0795398194      -27.2232794134  TIP3      5835            0.0000000000
     39826      6028  TIP3      OH2            29.8746542127       19.3254489622      -37.9652851086  TIP3      5836            0.0000000000
     39827      6028  TIP3      H1             30.0347504548       19.6147534650      -38.8906173303  TIP3      5836            0.0000000000
     39828      6028  TIP3      H2             29.9620972238       20.1913992152      -37.5069452395  TIP3      5836            0.0000000000
     39829      6029  TIP3      OH2            23.5286313036       17.9946241567      -35.9286864416  TIP3      5837            0.0000000000
     39830      6029  TIP3      H1             23.7967075953       17.6658352702      -35.0402873924  TIP3      5837            0.0000000000
     39831      6029  TIP3      H2             22.6772648603       17.5305544976      -36.0863693075  TIP3      5837            0.0000000000
     39832      6030  TIP3      OH2            33.1393425286       18.6619045244      -40.7124282257  TIP3      5838            0.0000000000
     39833      6030  TIP3      H1             33.5084992362       17.8704334668      -41.1514814187  TIP3      5838            0.0000000000
     39834      6030  TIP3      H2             33.0401487065       18.3546387125      -39.7870853447  TIP3      5838            0.0000000000
     39835      6031  TIP3      OH2            32.3289054507       18.1773088310      -38.0754164628  TIP3      5839            0.0000000000
     39836      6031  TIP3      H1             31.3947391729       18.4063849153      -37.8860418188  TIP3      5839            0.0000000000
     39837      6031  TIP3      H2             32.5526535928       17.5775531106      -37.3470593321  TIP3      5839            0.0000000000
     39838      6032  TIP3      OH2            35.2594327000        7.6054630984      -25.7705480343  TIP3      5840            0.0000000000
     39839      6032  TIP3      H1             34.7590398943        7.7250919652      -26.5950405797  TIP3      5840            0.0000000000
     39840      6032  TIP3      H2             36.0456661007        7.1366681130      -26.1249996218  TIP3      5840            0.0000000000
     39841      6033  TIP3      OH2            22.9283394707       13.9495143537      -28.0560264110  TIP3      5841            0.0000000000
     39842      6033  TIP3      H1             23.0006303120       13.5420605071      -27.1553870630  TIP3      5841            0.0000000000
     39843      6033  TIP3      H2             22.0482827082       13.6256152271      -28.3401066349  TIP3      5841            0.0000000000
     39844      6034  TIP3      OH2            25.4609540977        2.6984271035      -32.0159087098  TIP3      5842            0.0000000000
     39845      6034  TIP3      H1             24.5580920500        2.5021291354      -32.3418266049  TIP3      5842            0.0000000000
     39846      6034  TIP3      H2             25.2341264558        3.1001189611      -31.1564732443  TIP3      5842            0.0000000000
     39847      6035  TIP3      OH2            30.3139564453        1.7033045189      -28.7274710640  TIP3      5843            0.0000000000
     39848      6035  TIP3      H1             30.3899513862        1.5278517024      -27.7793107617  TIP3      5843            0.0000000000
     39849      6035  TIP3      H2             29.3470446634        1.8967266604      -28.8097776655  TIP3      5843            0.0000000000
     39850      6036  TIP3      OH2            33.0719854565        6.1326403755      -27.7220357591  TIP3      5844            0.0000000000
     39851      6036  TIP3      H1             32.3716146180        6.0356190733      -27.0376394806  TIP3      5844            0.0000000000
     39852      6036  TIP3      H2             32.8212767770        6.9619220363      -28.1800047253  TIP3      5844            0.0000000000
     39853      6037  TIP3      OH2            34.0496329493       11.1752331564      -41.4779826137  TIP3      5845            0.0000000000
     39854      6037  TIP3      H1             34.2067876636       11.3287898250      -42.4250621469  TIP3      5845            0.0000000000
     39855      6037  TIP3      H2             34.5832334338       11.8837844767      -41.0787269849  TIP3      5845            0.0000000000
     39856      6038  TIP3      OH2            29.8182579631        4.8611568341      -41.2822375139  TIP3      5846            0.0000000000
     39857      6038  TIP3      H1             29.7404673308        4.8090943319      -40.3161300494  TIP3      5846            0.0000000000
     39858      6038  TIP3      H2             29.5814116934        3.9512855729      -41.4930981732  TIP3      5846            0.0000000000
     39859      6039  TIP3      OH2            25.5620694945        7.3461420004      -30.6704582050  TIP3      5847            0.0000000000
     39860      6039  TIP3      H1             24.8009563295        7.3986673238      -30.0571822466  TIP3      5847            0.0000000000
     39861      6039  TIP3      H2             25.5686348965        8.2790708273      -30.9802046611  TIP3      5847            0.0000000000
     39862      6040  TIP3      OH2            25.7962925889        7.4580695993      -35.7483746521  TIP3      5848            0.0000000000
     39863      6040  TIP3      H1             24.8696610866        7.7455036477      -35.7438101933  TIP3      5848            0.0000000000
     39864      6040  TIP3      H2             25.9206062823        7.1841168493      -36.6812660224  TIP3      5848            0.0000000000
     39865      6041  TIP3      OH2            31.4458361613        8.4389285653      -37.0805170373  TIP3      5849            0.0000000000
     39866      6041  TIP3      H1             30.9912448900        9.1795227336      -37.5357407789  TIP3      5849            0.0000000000
     39867      6041  TIP3      H2             31.9496742530        8.0710020279      -37.8193135255  TIP3      5849            0.0000000000
     39868      6042  TIP3      OH2            29.7807181287        8.3014471278      -25.6751006761  TIP3      5850            0.0000000000
     39869      6042  TIP3      H1             29.3275026189        7.4921821410      -25.3448219179  TIP3      5850            0.0000000000
     39870      6042  TIP3      H2             30.6399646533        8.1994285433      -25.2223286320  TIP3      5850            0.0000000000
     39871      6043  TIP3      OH2            32.0209620325        7.7469427287      -34.0678366587  TIP3      5851            0.0000000000
     39872      6043  TIP3      H1             31.7451730586        8.3288272498      -34.8052936660  TIP3      5851            0.0000000000
     39873      6043  TIP3      H2             31.6047599736        6.9084596933      -34.3807539274  TIP3      5851            0.0000000000
     39874      6044  TIP3      OH2            22.9558056193        7.3579994332      -29.3139270300  TIP3      5852            0.0000000000
     39875      6044  TIP3      H1             23.2992384247        7.7317471547      -28.4839183751  TIP3      5852            0.0000000000
     39876      6044  TIP3      H2             22.6002437479        6.5010712269      -29.0096283075  TIP3      5852            0.0000000000
     39877      6045  TIP3      OH2            26.4176580153        5.2477698882      -41.6320548176  TIP3      5853            0.0000000000
     39878      6045  TIP3      H1             26.1099378402        4.6621122427      -40.9096536257  TIP3      5853            0.0000000000
     39879      6045  TIP3      H2             26.1157173705        6.1345907532      -41.3260960989  TIP3      5853            0.0000000000
     39880      6046  TIP3      OH2            19.8671939044        4.6768739377      -34.8654822852  TIP3      5854            0.0000000000
     39881      6046  TIP3      H1             20.4507342918        4.6266238412      -34.0824188306  TIP3      5854            0.0000000000
     39882      6046  TIP3      H2             20.4109448128        4.3505438346      -35.5976684442  TIP3      5854            0.0000000000
     39883      6047  TIP3      OH2            20.9730552840        5.2432039083      -39.6496304146  TIP3      5855            0.0000000000
     39884      6047  TIP3      H1             21.5603651981        5.6343462152      -40.3122529956  TIP3      5855            0.0000000000
     39885      6047  TIP3      H2             20.7469992494        5.9934203633      -39.0640974832  TIP3      5855            0.0000000000
     39886      6048  TIP3      OH2            31.1576352961        9.3344444536      -29.7840751292  TIP3      5856            0.0000000000
     39887      6048  TIP3      H1             31.4511221299        8.6074733878      -30.3827358640  TIP3      5856            0.0000000000
     39888      6048  TIP3      H2             30.6118067304        8.8262406294      -29.1583544050  TIP3      5856            0.0000000000
     39889      6049  TIP3      OH2            27.7068229740        4.0862788220      -34.2593333650  TIP3      5857            0.0000000000
     39890      6049  TIP3      H1             26.8711449467        4.5961736841      -34.1878623453  TIP3      5857            0.0000000000
     39891      6049  TIP3      H2             28.4179789808        4.7641113612      -34.2956338092  TIP3      5857            0.0000000000
     39892      6050  TIP3      OH2            22.7536951267        6.5464125812      -35.9136648794  TIP3      5858            0.0000000000
     39893      6050  TIP3      H1             21.9844197806        6.8344957150      -36.4492777312  TIP3      5858            0.0000000000
     39894      6050  TIP3      H2             23.1218527773        5.8024741749      -36.4172725112  TIP3      5858            0.0000000000
     39895      6051  TIP3      OH2            25.8725429942        6.5586109286      -38.3145449666  TIP3      5859            0.0000000000
     39896      6051  TIP3      H1             26.8364080315        6.5882873531      -38.1095199965  TIP3      5859            0.0000000000
     39897      6051  TIP3      H2             25.8066452132        7.0872114920      -39.1388309968  TIP3      5859            0.0000000000
     39898      6052  TIP3      OH2            32.3762522126        4.1686330408      -31.6324456619  TIP3      5860            0.0000000000
     39899      6052  TIP3      H1             31.5838662609        4.2567944806      -31.0642730602  TIP3      5860            0.0000000000
     39900      6052  TIP3      H2             31.9601003252        3.7886349397      -32.4287989943  TIP3      5860            0.0000000000
     39901      6053  TIP3      OH2            25.7696325254        7.7027022349      -40.9338649873  TIP3      5861            0.0000000000
     39902      6053  TIP3      H1             25.3595965686        8.0210426025      -41.7495211036  TIP3      5861            0.0000000000
     39903      6053  TIP3      H2             26.6832654325        8.0350984237      -41.0884777807  TIP3      5861            0.0000000000
     39904      6054  TIP3      OH2            35.5647766855       20.0232344247      -25.3375866910  TIP3      5862            0.0000000000
     39905      6054  TIP3      H1             36.2343135087       19.9462492136      -26.0367079531  TIP3      5862            0.0000000000
     39906      6054  TIP3      H2             35.7069424173       20.9382136154      -25.0262823720  TIP3      5862            0.0000000000
     39907      6055  TIP3      OH2            22.9140597105       12.6306417762      -25.6114080509  TIP3      5863            0.0000000000
     39908      6055  TIP3      H1             23.4215110599       11.8986685058      -25.2146505441  TIP3      5863            0.0000000000
     39909      6055  TIP3      H2             22.0420848019       12.4991001272      -25.2167598530  TIP3      5863            0.0000000000
     39910      6056  TIP3      OH2            28.6244726921        7.8392011710      -33.1766072706  TIP3      5864            0.0000000000
     39911      6056  TIP3      H1             29.3456725330        7.4547040858      -33.7180575944  TIP3      5864            0.0000000000
     39912      6056  TIP3      H2             28.5943049354        7.2390719001      -32.4183052839  TIP3      5864            0.0000000000
     39913      6057  TIP3      OH2            23.8371407619        3.6807116890      -36.3963974860  TIP3      5865            0.0000000000
     39914      6057  TIP3      H1             23.1101665920        3.1820349388      -35.9520296589  TIP3      5865            0.0000000000
     39915      6057  TIP3      H2             24.4460988353        2.9485129801      -36.5534169030  TIP3      5865            0.0000000000
     39916      6058  TIP3      OH2            27.6890655278        5.8147716950      -30.3245688083  TIP3      5866            0.0000000000
     39917      6058  TIP3      H1             26.9963476393        6.4713287550      -30.5569786760  TIP3      5866            0.0000000000
     39918      6058  TIP3      H2             28.4871471708        6.3514989289      -30.2508229310  TIP3      5866            0.0000000000
     39919      6059  TIP3      OH2            28.4135079929       12.5279743024      -38.5156290598  TIP3      5867            0.0000000000
     39920      6059  TIP3      H1             27.6794389920       11.9918469841      -38.8854817900  TIP3      5867            0.0000000000
     39921      6059  TIP3      H2             28.0498431327       12.7464225204      -37.6261981860  TIP3      5867            0.0000000000
     39922      6060  TIP3      OH2            35.3970365598       11.7383936252      -30.1884274645  TIP3      5868            0.0000000000
     39923      6060  TIP3      H1             36.0547922445       11.6168152776      -30.9175950709  TIP3      5868            0.0000000000
     39924      6060  TIP3      H2             34.5714769709       11.6044938897      -30.7083871042  TIP3      5868            0.0000000000
     39925      6061  TIP3      OH2            32.4071791921        5.1969221914      -40.8205490357  TIP3      5869            0.0000000000
     39926      6061  TIP3      H1             31.5166093358        5.1900648798      -41.2258641641  TIP3      5869            0.0000000000
     39927      6061  TIP3      H2             32.4396985769        6.1069125315      -40.4457727428  TIP3      5869            0.0000000000
     39928      6062  TIP3      OH2            29.6135365837       12.6946414331      -27.3049995438  TIP3      5870            0.0000000000
     39929      6062  TIP3      H1             29.1698536993       12.5355973164      -26.4561137821  TIP3      5870            0.0000000000
     39930      6062  TIP3      H2             29.6818571639       13.6683029603      -27.2875580533  TIP3      5870            0.0000000000
     39931      6063  TIP3      OH2            33.1202332886        7.4035236090      -39.3952993470  TIP3      5871            0.0000000000
     39932      6063  TIP3      H1             33.8012214058        7.2750918486      -38.7157095585  TIP3      5871            0.0000000000
     39933      6063  TIP3      H2             33.0628037725        8.3753796149      -39.4444337482  TIP3      5871            0.0000000000
     39934      6064  TIP3      OH2            23.6550236842       11.7993188631      -33.1340729169  TIP3      5872            0.0000000000
     39935      6064  TIP3      H1             24.2990633734       11.7152797040      -33.8626628193  TIP3      5872            0.0000000000
     39936      6064  TIP3      H2             23.8612027717       11.0517840531      -32.5493355231  TIP3      5872            0.0000000000
     39937      6065  TIP3      OH2            30.4455856224       13.9197950851      -39.5308288956  TIP3      5873            0.0000000000
     39938      6065  TIP3      H1             30.0681741996       14.8050318910      -39.3326549939  TIP3      5873            0.0000000000
     39939      6065  TIP3      H2             29.7081744345       13.3389859962      -39.2395608591  TIP3      5873            0.0000000000
     39940      6066  TIP3      OH2            20.7779233550       10.2173694746      -27.9099676639  TIP3      5874            0.0000000000
     39941      6066  TIP3      H1             20.7132107336        9.9554857416      -26.9675270690  TIP3      5874            0.0000000000
     39942      6066  TIP3      H2             20.0136382643        9.7506543518      -28.2894622598  TIP3      5874            0.0000000000
     39943      6067  TIP3      OH2            27.4205808915        9.9579799239      -25.9933597544  TIP3      5875            0.0000000000
     39944      6067  TIP3      H1             27.1705555361        9.2208922147      -26.5644144124  TIP3      5875            0.0000000000
     39945      6067  TIP3      H2             28.3869308258        9.8430333203      -25.9706169576  TIP3      5875            0.0000000000
     39946      6068  TIP3      OH2            32.8038785742       14.9203287117      -27.1514420089  TIP3      5876            0.0000000000
     39947      6068  TIP3      H1             31.9482213609       15.1203954797      -27.5469495322  TIP3      5876            0.0000000000
     39948      6068  TIP3      H2             32.6753270136       15.2853637719      -26.2570587576  TIP3      5876            0.0000000000
     39949      6069  TIP3      OH2            35.8293573239       16.3575235622      -39.2525583046  TIP3      5877            0.0000000000
     39950      6069  TIP3      H1             35.4094660370       15.7175533531      -38.6652578958  TIP3      5877            0.0000000000
     39951      6069  TIP3      H2             36.0608781232       15.8108461292      -40.0232073145  TIP3      5877            0.0000000000
     39952      6070  TIP3      OH2            33.2477227529       11.0086241352      -31.7810903742  TIP3      5878            0.0000000000
     39953      6070  TIP3      H1             32.3508220941       10.7680389107      -32.0909739210  TIP3      5878            0.0000000000
     39954      6070  TIP3      H2             33.7508318727       10.2830133687      -32.2252249330  TIP3      5878            0.0000000000
     39955      6071  TIP3      OH2            25.8724021282       15.4099386987      -35.8145315833  TIP3      5879            0.0000000000
     39956      6071  TIP3      H1             25.9296376821       16.3730284497      -35.9502097524  TIP3      5879            0.0000000000
     39957      6071  TIP3      H2             25.0008146766       15.2416293912      -36.1946658117  TIP3      5879            0.0000000000
     39958      6072  TIP3      OH2            22.0151067375       10.1757527255      -41.0790429367  TIP3      5880            0.0000000000
     39959      6072  TIP3      H1             22.5389123161       10.7656964484      -40.4927596991  TIP3      5880            0.0000000000
     39960      6072  TIP3      H2             21.1021583546       10.3018368908      -40.7464707010  TIP3      5880            0.0000000000
     39961      6073  TIP3      OH2            27.2310959078       13.1341503411      -36.1035931112  TIP3      5881            0.0000000000
     39962      6073  TIP3      H1             26.7836617936       14.0033457663      -35.9865852133  TIP3      5881            0.0000000000
     39963      6073  TIP3      H2             26.6059501931       12.5009829196      -35.7098243841  TIP3      5881            0.0000000000
     39964      6074  TIP3      OH2            27.9135682362       17.2819904781      -29.1030913864  TIP3      5882            0.0000000000
     39965      6074  TIP3      H1             28.5823507980       17.8680895288      -29.4901149695  TIP3      5882            0.0000000000
     39966      6074  TIP3      H2             28.4752924555       16.7619574676      -28.4902814383  TIP3      5882            0.0000000000
     39967      6075  TIP3      OH2            26.1823243393       18.0467687269      -36.7584910351  TIP3      5883            0.0000000000
     39968      6075  TIP3      H1             25.2181331089       18.1308101855      -36.5961728334  TIP3      5883            0.0000000000
     39969      6075  TIP3      H2             26.5045749919       18.6975499144      -36.1048034363  TIP3      5883            0.0000000000
     39970      6076  TIP3      OH2            31.2514326430       12.8401997858      -29.9205234244  TIP3      5884            0.0000000000
     39971      6076  TIP3      H1             31.2188512513       12.3899445705      -29.0523579509  TIP3      5884            0.0000000000
     39972      6076  TIP3      H2             31.9039109242       12.2863061757      -30.3861399917  TIP3      5884            0.0000000000
     39973      6077  TIP3      OH2            33.5651739487       14.7627265620      -40.3994842875  TIP3      5885            0.0000000000
     39974      6077  TIP3      H1             33.5257980175       14.2819686879      -39.5499997403  TIP3      5885            0.0000000000
     39975      6077  TIP3      H2             32.8501682088       14.3315939303      -40.8790774102  TIP3      5885            0.0000000000
     39976      6078  TIP3      OH2            34.7852254626       17.5426604863      -27.9260164339  TIP3      5886            0.0000000000
     39977      6078  TIP3      H1             33.8433354607       17.3329765276      -27.7773921380  TIP3      5886            0.0000000000
     39978      6078  TIP3      H2             34.7345908227       18.2828834155      -28.5755634700  TIP3      5886            0.0000000000
     39979      6079  TIP3      OH2            21.9532382675        4.8167846000      -28.6069413768  TIP3      5887            0.0000000000
     39980      6079  TIP3      H1             21.2149778805        5.2041856197      -28.1035969156  TIP3      5887            0.0000000000
     39981      6079  TIP3      H2             22.2461252279        4.1554737799      -27.9481946040  TIP3      5887            0.0000000000
     39982      6080  TIP3      OH2            34.9128807853       12.9469019473      -38.6156586809  TIP3      5888            0.0000000000
     39983      6080  TIP3      H1             34.7985666382       12.0546083643      -38.2030900499  TIP3      5888            0.0000000000
     39984      6080  TIP3      H2             35.8771782373       13.0702199012      -38.4947140046  TIP3      5888            0.0000000000
     39985      6081  TIP3      OH2            22.0392353876       16.6557693433      -29.9943054161  TIP3      5889            0.0000000000
     39986      6081  TIP3      H1             22.7746791536       16.0548720062      -29.8255681180  TIP3      5889            0.0000000000
     39987      6081  TIP3      H2             21.9774223311       17.1044394551      -29.1415444084  TIP3      5889            0.0000000000
     39988      6082  TIP3      OH2            26.4796005734       14.8417349742      -40.0006114259  TIP3      5890            0.0000000000
     39989      6082  TIP3      H1             27.0966787945       14.5090414160      -39.3291745220  TIP3      5890            0.0000000000
     39990      6082  TIP3      H2             26.5720101869       15.8189368557      -39.8699061055  TIP3      5890            0.0000000000
     39991      6083  TIP3      OH2            23.1855281403       12.0827028679      -39.6174409958  TIP3      5891            0.0000000000
     39992      6083  TIP3      H1             22.4672694847       12.5685072975      -39.1556624399  TIP3      5891            0.0000000000
     39993      6083  TIP3      H2             23.7193430367       12.8008365021      -40.0031948207  TIP3      5891            0.0000000000
     39994      6084  TIP3      OH2            30.8617936750        4.5225777511      -29.1527694772  TIP3      5892            0.0000000000
     39995      6084  TIP3      H1             30.9836231933        5.4489830719      -28.9007995414  TIP3      5892            0.0000000000
     39996      6084  TIP3      H2             30.4804178171        4.1603581912      -28.3416519453  TIP3      5892            0.0000000000
     39997      6085  TIP3      OH2            31.5373036482        4.3193502522      -38.2768611310  TIP3      5893            0.0000000000
     39998      6085  TIP3      H1             31.9947817474        4.5470522454      -39.1083511605  TIP3      5893            0.0000000000
     39999      6085  TIP3      H2             32.1760565766        4.6798510652      -37.6276557086  TIP3      5893            0.0000000000
     40000      6086  TIP3      OH2            29.4424325083       16.3443924205      -39.0381101008  TIP3      5894            0.0000000000
     40001      6086  TIP3      H1             28.7440749458       17.0138558339      -38.9848283448  TIP3      5894            0.0000000000
     40002      6086  TIP3      H2             30.0227253365       16.7560679807      -39.7166725912  TIP3      5894            0.0000000000
     40003      6087  TIP3      OH2            28.4881673139        6.0708467563      -37.7214073672  TIP3      5895            0.0000000000
     40004      6087  TIP3      H1             29.3798439166        6.4562986644      -37.6718361973  TIP3      5895            0.0000000000
     40005      6087  TIP3      H2             28.4577937553        5.6720533949      -36.8399198065  TIP3      5895            0.0000000000
     40006      6088  TIP3      OH2            29.7779995758        7.1688543835      -28.1825690673  TIP3      5896            0.0000000000
     40007      6088  TIP3      H1             29.7574214917        7.7734597081      -27.4072920123  TIP3      5896            0.0000000000
     40008      6088  TIP3      H2             28.8881710658        6.7370115072      -28.0904109101  TIP3      5896            0.0000000000
     40009      6089  TIP3      OH2            29.6323792501        2.9760901618      -36.8564771057  TIP3      5897            0.0000000000
     40010      6089  TIP3      H1             29.4352752670        3.5212198180      -36.0675893756  TIP3      5897            0.0000000000
     40011      6089  TIP3      H2             30.4366891532        3.4636961699      -37.1618260729  TIP3      5897            0.0000000000
     40012      6090  TIP3      OH2            26.7206437504       17.4886442564      -39.4310102773  TIP3      5898            0.0000000000
     40013      6090  TIP3      H1             27.1282368212       18.2946775375      -39.8040192889  TIP3      5898            0.0000000000
     40014      6090  TIP3      H2             26.4755121033       17.8197636093      -38.5406581747  TIP3      5898            0.0000000000
     40015      6091  TIP3      OH2            25.4164709421        4.0173801066      -39.4191968576  TIP3      5899            0.0000000000
     40016      6091  TIP3      H1             25.3570115524        4.8076305424      -38.8352587934  TIP3      5899            0.0000000000
     40017      6091  TIP3      H2             26.0900446618        3.4763211601      -38.9665118135  TIP3      5899            0.0000000000
     40018      6092  TIP3      OH2            34.9970149093        4.2269914024      -27.8474402533  TIP3      5900            0.0000000000
     40019      6092  TIP3      H1             34.2395271772        4.8141405989      -27.6208936310  TIP3      5900            0.0000000000
     40020      6092  TIP3      H2             35.6800355317        4.9179344227      -27.8442445996  TIP3      5900            0.0000000000
     40021      6093  TIP3      OH2            34.2475607444        8.8421608687      -33.0373036420  TIP3      5901            0.0000000000
     40022      6093  TIP3      H1             33.4397128615        8.5204543894      -33.5031271761  TIP3      5901            0.0000000000
     40023      6093  TIP3      H2             34.5697197724        8.0035295502      -32.6918825942  TIP3      5901            0.0000000000
     40024      6094  TIP3      OH2            23.8822225443       14.7012468400      -41.0028156649  TIP3      5902            0.0000000000
     40025      6094  TIP3      H1             24.7279697061       14.8954463030      -40.5420643926  TIP3      5902            0.0000000000
     40026      6094  TIP3      H2             24.2227526835       14.1175164031      -41.6975263725  TIP3      5902            0.0000000000
     40027      6095  TIP3      OH2            21.9406588347        7.6761256837      -41.7509750199  TIP3      5903            0.0000000000
     40028      6095  TIP3      H1             22.0428248910        8.5966630766      -41.3969203227  TIP3      5903            0.0000000000
     40029      6095  TIP3      H2             21.1875111354        7.7973492183      -42.3555346802  TIP3      5903            0.0000000000
     40030      6096  TIP3      OH2            35.6616396426       17.8746757439      -31.5121932237  TIP3      5904            0.0000000000
     40031      6096  TIP3      H1             35.3644847955       18.4179067461      -32.2752964304  TIP3      5904            0.0000000000
     40032      6096  TIP3      H2             36.5549707568       17.6680063497      -31.8168509679  TIP3      5904            0.0000000000
     40033      6097  TIP3      OH2            22.8517516053        2.0802848207      -32.6581467531  TIP3      5905            0.0000000000
     40034      6097  TIP3      H1             22.8517044237        1.9433536911      -33.6264056233  TIP3      5905            0.0000000000
     40035      6097  TIP3      H2             22.5286186358        1.2030528209      -32.3371442065  TIP3      5905            0.0000000000
     40036      6098  TIP3      OH2            21.5554020332       16.0972110651      -36.7464362506  TIP3      5906            0.0000000000
     40037      6098  TIP3      H1             20.6983569232       16.4184954929      -36.4420847371  TIP3      5906            0.0000000000
     40038      6098  TIP3      H2             21.6251681762       16.5688768889      -37.6023872794  TIP3      5906            0.0000000000
     40039      6099  TIP3      OH2            21.0516818548       18.5524716410      -25.6152293158  TIP3      5907            0.0000000000
     40040      6099  TIP3      H1             21.8947616071       18.3895272809      -25.1695636754  TIP3      5907            0.0000000000
     40041      6099  TIP3      H2             20.7471203840       17.6411797792      -25.8130329205  TIP3      5907            0.0000000000
     40042      6100  TIP3      OH2            30.3219156980       17.4397012243      -41.3849280739  TIP3      5908            0.0000000000
     40043      6100  TIP3      H1             29.7184530156       16.8039849707      -41.8276135339  TIP3      5908            0.0000000000
     40044      6100  TIP3      H2             30.8489725727       17.7156343997      -42.1586408019  TIP3      5908            0.0000000000
     40045      6101  TIP3      OH2            32.0836632285       16.2203929094      -24.8870698749  TIP3      5909            0.0000000000
     40046      6101  TIP3      H1             31.5925579264       15.3950436312      -24.6475356829  TIP3      5909            0.0000000000
     40047      6101  TIP3      H2             32.9442060514       16.0970529393      -24.4229971212  TIP3      5909            0.0000000000
     40048      6102  TIP3      OH2            34.5895011461       16.8352661571      -42.1294237243  TIP3      5910            0.0000000000
     40049      6102  TIP3      H1             34.4551312215       16.3434232444      -41.2823366008  TIP3      5910            0.0000000000
     40050      6102  TIP3      H2             35.5079515581       17.1356221686      -42.0656112118  TIP3      5910            0.0000000000
     40051      6103  TIP3      OH2            20.1611479167       12.3046838365      -24.3599925902  TIP3      5911            0.0000000000
     40052      6103  TIP3      H1             20.3478820019       11.4004203720      -24.6808420274  TIP3      5911            0.0000000000
     40053      6103  TIP3      H2             19.7914250441       12.6931655831      -25.1886033590  TIP3      5911            0.0000000000
     40054      6104  TIP3      OH2            25.5019701900       12.5568461456      -42.2598527222  TIP3      5912            0.0000000000
     40055      6104  TIP3      H1             26.2689651346       12.5281232156      -41.6672096448  TIP3      5912            0.0000000000
     40056      6104  TIP3      H2             25.8706861293       12.1610042302      -43.0861651928  TIP3      5912            0.0000000000
     40057      6105  TIP3      OH2            27.5397941512       12.6805400577      -25.2737616441  TIP3      5913            0.0000000000
     40058      6105  TIP3      H1             27.1975260748       13.1542023001      -26.0619357392  TIP3      5913            0.0000000000
     40059      6105  TIP3      H2             27.1440735342       11.7876500309      -25.4112535940  TIP3      5913            0.0000000000
     40060      6106  TIP3      OH2            33.0346765307       12.2050024393      -27.6015973008  TIP3      5914            0.0000000000
     40061      6106  TIP3      H1             33.9442308066       12.5857215471      -27.6232119675  TIP3      5914            0.0000000000
     40062      6106  TIP3      H2             32.5896758837       13.0448061482      -27.3822049777  TIP3      5914            0.0000000000
     40063      6107  TIP3      OH2            20.8745626881        9.8582249212      -25.1572024962  TIP3      5915            0.0000000000
     40064      6107  TIP3      H1             21.8169238167        9.6498761794      -25.3713888065  TIP3      5915            0.0000000000
     40065      6107  TIP3      H2             20.9611786520        9.8288490529      -24.1899392733  TIP3      5915            0.0000000000
     40066      6108  TIP3      OH2            26.5785712621       10.9884679388      -39.8563799106  TIP3      5916            0.0000000000
     40067      6108  TIP3      H1             25.8408708783       10.4718416875      -39.4782431127  TIP3      5916            0.0000000000
     40068      6108  TIP3      H2             27.0187263952       10.3376068166      -40.4300960804  TIP3      5916            0.0000000000
     40069      6109  TIP3      OH2            25.4755975795        8.4198744943      -27.9790444689  TIP3      5917            0.0000000000
     40070      6109  TIP3      H1             25.0656732462        8.8021990332      -27.1687780206  TIP3      5917            0.0000000000
     40071      6109  TIP3      H2             25.7305383287        9.2089142921      -28.4643675372  TIP3      5917            0.0000000000
     40072      6110  TIP3      OH2            27.8966964048        9.0092099652      -41.8715303880  TIP3      5918            0.0000000000
     40073      6110  TIP3      H1             28.3143485158        8.6473542292      -42.6755205691  TIP3      5918            0.0000000000
     40074      6110  TIP3      H2             28.7221463336        9.1382866380      -41.3309823441  TIP3      5918            0.0000000000
     40075      6111  TIP3      OH2            31.0841626723       11.3068491593      -24.1266809597  TIP3      5919            0.0000000000
     40076      6111  TIP3      H1             31.6375012124       10.7663043060      -24.7250061593  TIP3      5919            0.0000000000
     40077      6111  TIP3      H2             30.8774495737       10.6510139999      -23.4459051983  TIP3      5919            0.0000000000
     40078      6112  TIP3      OH2            27.3182338252        6.2543101195      -27.4250151242  TIP3      5920            0.0000000000
     40079      6112  TIP3      H1             26.8436743216        5.4369863171      -27.6992587843  TIP3      5920            0.0000000000
     40080      6112  TIP3      H2             26.9464763470        6.9021329085      -28.0517798818  TIP3      5920            0.0000000000
     40081      6113  TIP3      OH2            26.3342627573        4.1305184902      -28.7747074435  TIP3      5921            0.0000000000
     40082      6113  TIP3      H1             26.8062130289        4.6504086046      -29.4729941524  TIP3      5921            0.0000000000
     40083      6113  TIP3      H2             25.4251550996        4.0805559148      -29.1357502579  TIP3      5921            0.0000000000
     40084      6114  TIP3      OH2            28.0998907730        9.8586427960      -29.1953719800  TIP3      5922            0.0000000000
     40085      6114  TIP3      H1             28.7882558621       10.5358979494      -29.2387330845  TIP3      5922            0.0000000000
     40086      6114  TIP3      H2             27.3443787739       10.4076963229      -29.4884962395  TIP3      5922            0.0000000000
     40087      6115  TIP3      OH2            32.1811674581        7.4099942549      -24.1122593770  TIP3      5923            0.0000000000
     40088      6115  TIP3      H1             32.4587736965        6.8655626732      -23.3494557470  TIP3      5923            0.0000000000
     40089      6115  TIP3      H2             33.0175117739        7.5388821526      -24.5871729256  TIP3      5923            0.0000000000
     40090      6116  TIP3      OH2            33.3642947388       10.6139349593      -25.4938806202  TIP3      5924            0.0000000000
     40091      6116  TIP3      H1             32.9402441867       11.2041249398      -26.1505711430  TIP3      5924            0.0000000000
     40092      6116  TIP3      H2             34.2902884289       10.8599321317      -25.5993690085  TIP3      5924            0.0000000000
     40093      6117  TIP3      OH2            24.8576045529        6.7143953705      -24.8365869203  TIP3      5925            0.0000000000
     40094      6117  TIP3      H1             24.2940458646        7.4363876997      -24.5006734345  TIP3      5925            0.0000000000
     40095      6117  TIP3      H2             24.9244554919        7.0282592806      -25.7431679253  TIP3      5925            0.0000000000
     40096      6118  TIP3      OH2            27.6257134695        1.6866477192      -28.9680013556  TIP3      5926            0.0000000000
     40097      6118  TIP3      H1             27.1460960114        2.5413526517      -28.8422479628  TIP3      5926            0.0000000000
     40098      6118  TIP3      H2             26.8923595945        1.0803603314      -29.1682810325  TIP3      5926            0.0000000000
     40099      6119  TIP3      OH2            28.5127902388        5.9362802418      -24.8711178899  TIP3      5927            0.0000000000
     40100      6119  TIP3      H1             27.8862649264        5.7835066162      -24.1387171429  TIP3      5927            0.0000000000
     40101      6119  TIP3      H2             27.9068791016        5.8753298505      -25.6425214939  TIP3      5927            0.0000000000
     40102      6120  TIP3      OH2            31.1550039774        5.2704825487      -25.8580317581  TIP3      5928            0.0000000000
     40103      6120  TIP3      H1             30.2556412116        5.3680588004      -25.4826697758  TIP3      5928            0.0000000000
     40104      6120  TIP3      H2             31.7108937328        5.1623532719      -25.0737158296  TIP3      5928            0.0000000000
     40105      6121  TIP3      OH2            33.5169753967        3.9620251402      -24.0706307602  TIP3      5929            0.0000000000
     40106      6121  TIP3      H1             33.1331908210        3.0813223474      -24.0941969046  TIP3      5929            0.0000000000
     40107      6121  TIP3      H2             33.1357358457        4.3545520075      -23.2599251837  TIP3      5929            0.0000000000
     40108      6122  TIP3      OH2            22.6850714616        4.6639063196      -24.2205329115  TIP3      5930            0.0000000000
     40109      6122  TIP3      H1             23.6470021608        4.8432346989      -24.1760945690  TIP3      5930            0.0000000000
     40110      6122  TIP3      H2             22.3858206173        5.1524218966      -23.4353749368  TIP3      5930            0.0000000000
     40111      6123  TIP3      OH2            27.5351647445        1.3907358060      -26.2575436728  TIP3      5931            0.0000000000
     40112      6123  TIP3      H1             28.2994734806        0.8100875847      -26.0844580211  TIP3      5931            0.0000000000
     40113      6123  TIP3      H2             27.5272345256        1.4072669510      -27.2359089730  TIP3      5931            0.0000000000
     40114      6124  TIP3      OH2            27.8651551032        2.9292239369      -23.8602630324  TIP3      5932            0.0000000000
     40115      6124  TIP3      H1             27.5855184998        2.4663293398      -24.6713966763  TIP3      5932            0.0000000000
     40116      6124  TIP3      H2             27.0202529396        3.1342997378      -23.4280287201  TIP3      5932            0.0000000000
     40117      6125  TIP3      OH2            27.7563177558       19.6664130370      -40.8000006649  TIP3      5933            0.0000000000
     40118      6125  TIP3      H1             28.3570524424       20.4100281579      -40.6308429664  TIP3      5933            0.0000000000
     40119      6125  TIP3      H2             27.8747233170       19.5054576734      -41.7559015473  TIP3      5933            0.0000000000
     40120      6126  TIP3      OH2            20.8781109294       14.1543259595      -41.2266821819  TIP3      5934            0.0000000000
     40121      6126  TIP3      H1             21.8505635726       14.2631104541      -41.2511489012  TIP3      5934            0.0000000000
     40122      6126  TIP3      H2             20.6958294783       13.9761614383      -42.1595955169  TIP3      5934            0.0000000000
     40123      6127  TIP3      OH2            20.0091667893       19.2733164697      -36.4987388047  TIP3      5935            0.0000000000
     40124      6127  TIP3      H1             19.1644130351       18.8076386789      -36.6951028919  TIP3      5935            0.0000000000
     40125      6127  TIP3      H2             20.3035158077       18.7677951759      -35.7117301733  TIP3      5935            0.0000000000
     40126      6128  TIP3      OH2            20.7390830661       17.7930898719      -34.3857381332  TIP3      5936            0.0000000000
     40127      6128  TIP3      H1             20.2461751090       17.0224837847      -34.0531504224  TIP3      5936            0.0000000000
     40128      6128  TIP3      H2             21.3039859376       18.0341107101      -33.6160777570  TIP3      5936            0.0000000000
     40129      6129  TIP3      OH2            36.0110928628       13.2949594666      -23.9491902798  TIP3      5937            0.0000000000
     40130      6129  TIP3      H1             35.0706924615       13.5502243007      -23.8806802823  TIP3      5937            0.0000000000
     40131      6129  TIP3      H2             36.4020029792       14.0988727472      -23.5664757937  TIP3      5937            0.0000000000
     40132      6130  TIP3      OH2            36.2558418490       15.4969759052      -29.1845427592  TIP3      5938            0.0000000000
     40133      6130  TIP3      H1             35.7031051589       16.2330324178      -28.8602998777  TIP3      5938            0.0000000000
     40134      6130  TIP3      H2             35.9004796264       15.3799606370      -30.0842756469  TIP3      5938            0.0000000000
     40135      6131  TIP3      OH2            36.3330563225        7.1416043564      -41.3533916799  TIP3      5939            0.0000000000
     40136      6131  TIP3      H1             36.5503813470        7.7331766827      -42.0837675605  TIP3      5939            0.0000000000
     40137      6131  TIP3      H2             36.0459522383        6.3415725879      -41.8478887919  TIP3      5939            0.0000000000
     40138      6132  TIP3      OH2            35.3828941566        8.9455399058      -35.6501761405  TIP3      5940            0.0000000000
     40139      6132  TIP3      H1             34.9250953760        8.1389843041      -35.3797576880  TIP3      5940            0.0000000000
     40140      6132  TIP3      H2             35.5662210933        9.3674266172      -34.7845846860  TIP3      5940            0.0000000000
     40141      6133  TIP3      OH2            20.5692569420       11.1067507796      -31.7290136022  TIP3      5941            0.0000000000
     40142      6133  TIP3      H1             20.5002502768       10.7682109371      -32.6467451295  TIP3      5941            0.0000000000
     40143      6133  TIP3      H2             21.4572500314       10.7666934152      -31.4690154884  TIP3      5941            0.0000000000
     40144      6134  TIP3      OH2            36.6410268702       10.4680278402      -25.9589548759  TIP3      5942            0.0000000000
     40145      6134  TIP3      H1             36.1965515699       10.2407551932      -25.1268637088  TIP3      5942            0.0000000000
     40146      6134  TIP3      H2             36.6028253998       11.4425606506      -25.9550190668  TIP3      5942            0.0000000000
     40147      6135  TIP3      OH2            35.0808763018        5.0155003254      -42.5330606078  TIP3      5943            0.0000000000
     40148      6135  TIP3      H1             35.6867989449        4.3374027971      -42.2214522124  TIP3      5943            0.0000000000
     40149      6135  TIP3      H2             34.2308139077        4.7319302653      -42.1443196139  TIP3      5943            0.0000000000
     40150      6136  TIP3      OH2            35.6103926068        6.2884871745      -37.7784838349  TIP3      5944            0.0000000000
     40151      6136  TIP3      H1             35.1754766015        5.7035202264      -37.1321334628  TIP3      5944            0.0000000000
     40152      6136  TIP3      H2             35.6418859232        5.7910939990      -38.6098075159  TIP3      5944            0.0000000000
     40153      6137  TIP3      OH2            35.7296603569        6.3160243243      -31.8024065381  TIP3      5945            0.0000000000
     40154      6137  TIP3      H1             36.4446900249        6.6097590264      -32.3943443982  TIP3      5945            0.0000000000
     40155      6137  TIP3      H2             35.9841570950        6.7903080582      -30.9859837479  TIP3      5945            0.0000000000
     40156      6138  TIP3      OH2            35.8402809664        7.2455218213      -29.0483609700  TIP3      5946            0.0000000000
     40157      6138  TIP3      H1             34.9595814431        7.4876470074      -28.7029860475  TIP3      5946            0.0000000000
     40158      6138  TIP3      H2             36.0174873028        8.0145631450      -29.6161293377  TIP3      5946            0.0000000000
     40159      6139  TIP3      OH2            20.4914446901        5.8433465734      -25.7191919087  TIP3      5947            0.0000000000
     40160      6139  TIP3      H1             21.2873617543        5.8017729032      -25.1432520555  TIP3      5947            0.0000000000
     40161      6139  TIP3      H2             20.1461700005        4.9411215763      -25.5832850433  TIP3      5947            0.0000000000
     40162      6140  TIP3      OH2            35.3276307019        2.9865254734      -36.7842327963  TIP3      5948            0.0000000000
     40163      6140  TIP3      H1             36.1814069735        2.6274435226      -37.1117100059  TIP3      5948            0.0000000000
     40164      6140  TIP3      H2             34.6971675725        2.4341262334      -37.2960460648  TIP3      5948            0.0000000000
     40165      6141  TIP3      OH2            21.6004378893        4.4056048041      -32.6525800349  TIP3      5949            0.0000000000
     40166      6141  TIP3      H1             21.9730952493        3.4996299862      -32.5247375179  TIP3      5949            0.0000000000
     40167      6141  TIP3      H2             22.4024879962        4.9617066421      -32.5756948241  TIP3      5949            0.0000000000
     40168      6142  TIP3      OH2            19.8947026436        7.3717485857      -31.6397955728  TIP3      5950            0.0000000000
     40169      6142  TIP3      H1             20.1610258624        7.0347146374      -32.5129818427  TIP3      5950            0.0000000000
     40170      6142  TIP3      H2             20.5162027329        8.1001217254      -31.5287870013  TIP3      5950            0.0000000000
     40171      6143  TIP3      OH2            19.8687060771        3.6689616891      -37.7020688570  TIP3      5951            0.0000000000
     40172      6143  TIP3      H1             18.8960280038        3.7405198097      -37.6910142788  TIP3      5951            0.0000000000
     40173      6143  TIP3      H2             20.0986105083        4.1311088434      -38.5298248335  TIP3      5951            0.0000000000
     40174      6144  TIP3      OH2            34.8675722268       18.4095580258      -35.9330345526  TIP3      5952            0.0000000000
     40175      6144  TIP3      H1             35.5056782213       17.7600777727      -36.2720838724  TIP3      5952            0.0000000000
     40176      6144  TIP3      H2             35.2383368974       18.5598221516      -35.0365696692  TIP3      5952            0.0000000000
     40177      6145  TIP3      OH2            20.0337738254        2.2991491182      -29.4877568665  TIP3      5953            0.0000000000
     40178      6145  TIP3      H1             19.4225580696        1.9757899391      -28.8019817111  TIP3      5953            0.0000000000
     40179      6145  TIP3      H2             19.6297885924        3.1379644216      -29.7494009586  TIP3      5953            0.0000000000
     40180      6146  TIP3      OH2            22.2163495344       15.4482416921      -25.2308681304  TIP3      5954            0.0000000000
     40181      6146  TIP3      H1             21.4055062279       15.5891874768      -25.7600020173  TIP3      5954            0.0000000000
     40182      6146  TIP3      H2             21.8388192154       15.2471286852      -24.3582129587  TIP3      5954            0.0000000000
     40183      6147  TIP3      OH2            25.2256852052       17.0395104602      -28.8548743544  TIP3      5955            0.0000000000
     40184      6147  TIP3      H1             25.2754112314       17.9530176592      -29.2196668831  TIP3      5955            0.0000000000
     40185      6147  TIP3      H2             26.1797116866       16.8519596772      -28.7823952507  TIP3      5955            0.0000000000
     40186      6148  TIP3      OH2            29.5636239918       18.2196706710      -26.3827471158  TIP3      5956            0.0000000000
     40187      6148  TIP3      H1             29.5581810169       17.9546581902      -25.4405073018  TIP3      5956            0.0000000000
     40188      6148  TIP3      H2             30.4834901330       18.5575835107      -26.4648679746  TIP3      5956            0.0000000000
     40189      6149  TIP3      OH2            32.0208430810       19.4895415606      -26.6354410756  TIP3      5957            0.0000000000
     40190      6149  TIP3      H1             32.7883257815       19.7013082692      -27.1899572611  TIP3      5957            0.0000000000
     40191      6149  TIP3      H2             32.2127507847       19.9397223619      -25.7726358462  TIP3      5957            0.0000000000
     40192      6150  TIP3      OH2            22.5080863903       19.9019594391      -29.1149066644  TIP3      5958            0.0000000000
     40193      6150  TIP3      H1             21.7337409894       20.3900015657      -29.4589094735  TIP3      5958            0.0000000000
     40194      6150  TIP3      H2             22.5542496514       20.2569616719      -28.2121087836  TIP3      5958            0.0000000000
     40195      6151  TIP3      OH2            24.9641804372       19.4515837388      -30.0603140967  TIP3      5959            0.0000000000
     40196      6151  TIP3      H1             24.0612355369       19.5968610396      -29.6873098336  TIP3      5959            0.0000000000
     40197      6151  TIP3      H2             24.9176054900       19.9943620445      -30.8732546626  TIP3      5959            0.0000000000
     40198      6152  TIP3      OH2            29.9519422069       18.9169120231      -30.6435062289  TIP3      5960            0.0000000000
     40199      6152  TIP3      H1             29.3741027952       19.1256042601      -31.3883867006  TIP3      5960            0.0000000000
     40200      6152  TIP3      H2             29.7925100875       19.6942140208      -30.0769738609  TIP3      5960            0.0000000000
     40201      6153  TIP3      OH2            32.0002505504       17.7981066978      -29.3938555548  TIP3      5961            0.0000000000
     40202      6153  TIP3      H1             31.3074179355       18.2425608019      -29.9313717267  TIP3      5961            0.0000000000
     40203      6153  TIP3      H2             32.7202212524       18.4260030833      -29.5758535936  TIP3      5961            0.0000000000
     40204      6154  TIP3      OH2            34.3608922899       19.5396270213      -29.7293155145  TIP3      5962            0.0000000000
     40205      6154  TIP3      H1             34.6094501417       20.4740270502      -29.8406244120  TIP3      5962            0.0000000000
     40206      6154  TIP3      H2             34.9472129346       19.0872047747      -30.3827845253  TIP3      5962            0.0000000000
     40207      6155  TIP3      OH2            22.3034442642       18.4124403891      -32.1642743523  TIP3      5963            0.0000000000
     40208      6155  TIP3      H1             22.1399134871       17.8080925035      -31.4000177432  TIP3      5963            0.0000000000
     40209      6155  TIP3      H2             23.2113603462       18.1382747717      -32.4320986652  TIP3      5963            0.0000000000
     40210      6156  TIP3      OH2            24.5688168869       17.4995233030      -33.3897926777  TIP3      5964            0.0000000000
     40211      6156  TIP3      H1             24.3378742269       16.5462113608      -33.2547147345  TIP3      5964            0.0000000000
     40212      6156  TIP3      H2             25.3755935827       17.5484297020      -32.8424210881  TIP3      5964            0.0000000000
     40213      6157  TIP3      OH2            26.8726647788       17.2382721069      -31.7471744412  TIP3      5965            0.0000000000
     40214      6157  TIP3      H1             27.0947236402       16.3243202156      -31.9926952285  TIP3      5965            0.0000000000
     40215      6157  TIP3      H2             26.9354759242       17.2044644911      -30.7718661825  TIP3      5965            0.0000000000
     40216      6158  TIP3      OH2            30.2828006407        2.6169111721      -33.0861562818  TIP3      5966            0.0000000000
     40217      6158  TIP3      H1             29.4088971442        2.1866298800      -32.9708123362  TIP3      5966            0.0000000000
     40218      6158  TIP3      H2             30.0271927702        3.4816422307      -33.4574402122  TIP3      5966            0.0000000000
     40219      6159  TIP3      OH2            35.6239986154        0.9801474977      -33.3130959156  TIP3      5967            0.0000000000
     40220      6159  TIP3      H1             36.2296644279        1.7148561811      -33.4659582073  TIP3      5967            0.0000000000
     40221      6159  TIP3      H2             34.7658620828        1.3938600809      -33.5490722243  TIP3      5967            0.0000000000
     40222      6160  TIP3      OH2            22.4045517124        1.6289833869      -35.4153139511  TIP3      5968            0.0000000000
     40223      6160  TIP3      H1             21.5173341012        1.3413925286      -35.7173684056  TIP3      5968            0.0000000000
     40224      6160  TIP3      H2             22.9487933390        0.8362392734      -35.6335669544  TIP3      5968            0.0000000000
     40225      6161  TIP3      OH2            21.3814446221        2.0100894758      -40.1491703073  TIP3      5969            0.0000000000
     40226      6161  TIP3      H1             21.9883425541        2.7379395841      -40.3688096006  TIP3      5969            0.0000000000
     40227      6161  TIP3      H2             20.9609529599        2.3236104344      -39.3345021157  TIP3      5969            0.0000000000
     40228      6162  TIP3      OH2            26.6291733992        1.5320241977      -35.4998676566  TIP3      5970            0.0000000000
     40229      6162  TIP3      H1             27.4552895950        1.5500169504      -36.0064478836  TIP3      5970            0.0000000000
     40230      6162  TIP3      H2             26.8268915856        2.2349326575      -34.8492277756  TIP3      5970            0.0000000000
     40231      6163  TIP3      OH2            33.2859000146        1.8867828890      -34.1741353125  TIP3      5971            0.0000000000
     40232      6163  TIP3      H1             32.9917253977        2.5379480386      -34.8205301235  TIP3      5971            0.0000000000
     40233      6163  TIP3      H2             32.4727573508        1.3491921938      -34.0535404593  TIP3      5971            0.0000000000
     40234      6164  TIP3      OH2            33.7970010608        1.5029696537      -38.3167533720  TIP3      5972            0.0000000000
     40235      6164  TIP3      H1             32.9832409137        2.0145287529      -38.2573346109  TIP3      5972            0.0000000000
     40236      6164  TIP3      H2             33.4700063076        0.5750696825      -38.1908845222  TIP3      5972            0.0000000000
     40237      6165  TIP3      OH2            21.1445220538       17.6852723375      -38.9124361378  TIP3      5973            0.0000000000
     40238      6165  TIP3      H1             20.2423078004       17.6930908052      -39.2873218017  TIP3      5973            0.0000000000
     40239      6165  TIP3      H2             21.3506451706       18.6232015553      -39.0925936179  TIP3      5973            0.0000000000
     40240      6166  TIP3      OH2            23.1518018222        3.9330511579      -41.3008749189  TIP3      5974            0.0000000000
     40241      6166  TIP3      H1             23.6526685717        3.3158195323      -41.8520315449  TIP3      5974            0.0000000000
     40242      6166  TIP3      H2             23.7934943983        4.0501735867      -40.5675111780  TIP3      5974            0.0000000000
     40243      6167  TIP3      OH2            28.4234644235        3.6936024318      -39.1840921659  TIP3      5975            0.0000000000
     40244      6167  TIP3      H1             28.8525167221        3.2900253871      -38.4041268458  TIP3      5975            0.0000000000
     40245      6167  TIP3      H2             28.3872545690        4.6238924939      -38.8853884694  TIP3      5975            0.0000000000
     40246      6168  TIP3      OH2            30.6946543625       20.0035119124      -40.4495603655  TIP3      5976            0.0000000000
     40247      6168  TIP3      H1             31.6638698143       19.8640600733      -40.5402632230  TIP3      5976            0.0000000000
     40248      6168  TIP3      H2             30.3811271156       19.1241484982      -40.7728350572  TIP3      5976            0.0000000000
     40249      6169  TIP3      OH2            22.5522104188        2.4980439799      -26.6908671525  TIP3      5977            0.0000000000
     40250      6169  TIP3      H1             21.8749711546        1.9519669345      -26.2746713150  TIP3      5977            0.0000000000
     40251      6169  TIP3      H2             23.1885035496        2.6166987375      -25.9541902240  TIP3      5977            0.0000000000
     40252      6170  TIP3      OH2            24.4352263164        1.9447913670      -24.4043291678  TIP3      5978            0.0000000000
     40253      6170  TIP3      H1             25.2283977497        1.4039153533      -24.5561717294  TIP3      5978            0.0000000000
     40254      6170  TIP3      H2             24.0264142708        1.5379748343      -23.6212657370  TIP3      5978            0.0000000000
     40255      6171  TIP3      OH2            23.1335204261       18.6618273881      -41.8842900382  TIP3      5979            0.0000000000
     40256      6171  TIP3      H1             22.5768804870       19.0964313164      -41.2237915645  TIP3      5979            0.0000000000
     40257      6171  TIP3      H2             23.4967685067       17.9026913620      -41.4144838354  TIP3      5979            0.0000000000
     40258      6172  TIP3      OH2            36.0070717913       17.0113103140      -25.6067735370  TIP3      5980            0.0000000000
     40259      6172  TIP3      H1             35.7436703626       16.7263372387      -26.5029372520  TIP3      5980            0.0000000000
     40260      6172  TIP3      H2             35.6720951887       17.9355866501      -25.6689833630  TIP3      5980            0.0000000000
     40261      6173  TIP3      OH2           -24.8099776329       29.9414488649      -35.7952099165  TIP3      5981            0.0000000000
     40262      6173  TIP3      H1            -25.0343860834       30.8964241268      -35.8663383067  TIP3      5981            0.0000000000
     40263      6173  TIP3      H2            -25.5743934725       29.5255187130      -36.2276043564  TIP3      5981            0.0000000000
     40264      6174  TIP3      OH2           -26.0039662807       28.7684574887      -32.2850352367  TIP3      5982            0.0000000000
     40265      6174  TIP3      H1            -25.7723890103       28.3588250473      -31.4247211281  TIP3      5982            0.0000000000
     40266      6174  TIP3      H2            -26.6099327015       28.1111751765      -32.6723755602  TIP3      5982            0.0000000000
     40267      6175  TIP3      OH2           -33.7747499531       29.1125109983      -31.1075854570  TIP3      5983            0.0000000000
     40268      6175  TIP3      H1            -34.0131965038       28.4228291194      -30.4785637490  TIP3      5983            0.0000000000
     40269      6175  TIP3      H2            -32.9750020080       29.4614926928      -30.6687508182  TIP3      5983            0.0000000000
     40270      6176  TIP3      OH2           -22.6996794955       31.8617295293      -33.7991415496  TIP3      5984            0.0000000000
     40271      6176  TIP3      H1            -22.8139104602       31.1167651652      -33.1766501190  TIP3      5984            0.0000000000
     40272      6176  TIP3      H2            -22.4669699154       32.5600282273      -33.1838190469  TIP3      5984            0.0000000000
     40273      6177  TIP3      OH2           -32.6093439791       33.2481168594      -32.4727077445  TIP3      5985            0.0000000000
     40274      6177  TIP3      H1            -32.9349483496       32.3830851225      -32.1545388829  TIP3      5985            0.0000000000
     40275      6177  TIP3      H2            -31.6512155610       33.0505164769      -32.5465875274  TIP3      5985            0.0000000000
     40276      6178  TIP3      OH2           -35.9580155970       26.3746152635      -37.0916072177  TIP3      5986            0.0000000000
     40277      6178  TIP3      H1            -36.6890524260       26.9844168982      -36.8849330682  TIP3      5986            0.0000000000
     40278      6178  TIP3      H2            -35.9061831283       25.8461313816      -36.2683091292  TIP3      5986            0.0000000000
     40279      6179  TIP3      OH2           -35.5169608587       28.8394310157      -34.2865164071  TIP3      5987            0.0000000000
     40280      6179  TIP3      H1            -35.4523042755       27.8592716064      -34.1868427924  TIP3      5987            0.0000000000
     40281      6179  TIP3      H2            -35.1926306420       28.9750550544      -35.1854120851  TIP3      5987            0.0000000000
     40282      6180  TIP3      OH2           -27.7565757263       31.2155705734      -31.3104422820  TIP3      5988            0.0000000000
     40283      6180  TIP3      H1            -27.3868781656       30.8460207609      -32.1297398423  TIP3      5988            0.0000000000
     40284      6180  TIP3      H2            -26.9073736224       31.4792754347      -30.8821087384  TIP3      5988            0.0000000000
     40285      6181  TIP3      OH2           -19.0998176495       23.3925664878      -31.6478925860  TIP3      5989            0.0000000000
     40286      6181  TIP3      H1            -19.0131498626       23.6556144103      -30.7048259219  TIP3      5989            0.0000000000
     40287      6181  TIP3      H2            -18.1618421630       23.3187690871      -31.9080849231  TIP3      5989            0.0000000000
     40288      6182  TIP3      OH2           -24.2072456760       25.9101366961      -31.3959319388  TIP3      5990            0.0000000000
     40289      6182  TIP3      H1            -23.9914575369       25.0218054781      -31.0602154730  TIP3      5990            0.0000000000
     40290      6182  TIP3      H2            -24.0553200507       25.7693390301      -32.3472739367  TIP3      5990            0.0000000000
     40291      6183  TIP3      OH2           -31.3554786434       23.9626253921      -34.3951009683  TIP3      5991            0.0000000000
     40292      6183  TIP3      H1            -31.0469992319       24.7335425937      -34.9027130848  TIP3      5991            0.0000000000
     40293      6183  TIP3      H2            -31.7227214032       23.4055985934      -35.1096373053  TIP3      5991            0.0000000000
     40294      6184  TIP3      OH2           -23.5240222035       24.0899631735      -35.8519342490  TIP3      5992            0.0000000000
     40295      6184  TIP3      H1            -23.0321068647       23.8968793553      -35.0237651873  TIP3      5992            0.0000000000
     40296      6184  TIP3      H2            -23.0505375170       24.8693666871      -36.1844060720  TIP3      5992            0.0000000000
     40297      6185  TIP3      OH2           -35.2881755078       26.2125135703      -33.8151676490  TIP3      5993            0.0000000000
     40298      6185  TIP3      H1            -34.6999251229       25.7650014919      -33.1815748681  TIP3      5993            0.0000000000
     40299      6185  TIP3      H2            -34.8682773955       25.8713315252      -34.6336539583  TIP3      5993            0.0000000000
     40300      6186  TIP3      OH2           -29.6981671270       28.2223375702      -34.1191734872  TIP3      5994            0.0000000000
     40301      6186  TIP3      H1            -28.8765956838       27.7402664277      -33.9085485832  TIP3      5994            0.0000000000
     40302      6186  TIP3      H2            -30.1098583103       27.5535584091      -34.7105346739  TIP3      5994            0.0000000000
     40303      6187  TIP3      OH2           -19.0219160950       24.2751979592      -28.9527294438  TIP3      5995            0.0000000000
     40304      6187  TIP3      H1            -19.3451317313       25.1439249376      -29.3093391562  TIP3      5995            0.0000000000
     40305      6187  TIP3      H2            -18.8104205481       24.6130088989      -28.0665030972  TIP3      5995            0.0000000000
     40306      6188  TIP3      OH2           -32.4292030480       23.1461655114      -30.2433267024  TIP3      5996            0.0000000000
     40307      6188  TIP3      H1            -32.7199258114       23.6061105427      -31.0473582706  TIP3      5996            0.0000000000
     40308      6188  TIP3      H2            -33.0930931058       23.4899876832      -29.6098375772  TIP3      5996            0.0000000000
     40309      6189  TIP3      OH2           -25.4286930935       32.3687743881      -36.8808244790  TIP3      5997            0.0000000000
     40310      6189  TIP3      H1            -25.8295575562       32.2138281727      -37.7604043209  TIP3      5997            0.0000000000
     40311      6189  TIP3      H2            -24.7595512889       33.0408670785      -37.0928351025  TIP3      5997            0.0000000000
     40312      6190  TIP3      OH2           -30.1885620069       30.5386392746      -30.2398668418  TIP3      5998            0.0000000000
     40313      6190  TIP3      H1            -30.6761150899       31.3337684652      -29.9241471003  TIP3      5998            0.0000000000
     40314      6190  TIP3      H2            -29.4252114056       30.9409218084      -30.7044856676  TIP3      5998            0.0000000000
     40315      6191  TIP3      OH2           -21.7011583760       24.0972406513      -33.5141789849  TIP3      5999            0.0000000000
     40316      6191  TIP3      H1            -21.4730132855       23.1768564764      -33.3045231275  TIP3      5999            0.0000000000
     40317      6191  TIP3      H2            -21.0221297647       24.6145803093      -33.0267005026  TIP3      5999            0.0000000000
     40318      6192  TIP3      OH2           -33.1774397947       25.0940155873      -32.2120906333  TIP3      6000            0.0000000000
     40319      6192  TIP3      H1            -32.5689701685       25.7419921542      -31.7897649132  TIP3      6000            0.0000000000
     40320      6192  TIP3      H2            -32.5798403626       24.7809634755      -32.9247332428  TIP3      6000            0.0000000000
     40321      6193  TIP3      OH2           -31.2440490729       32.8988805718      -29.6466936717  TIP3      6001            0.0000000000
     40322      6193  TIP3      H1            -31.3404762253       33.8357899912      -29.8553639111  TIP3      6001            0.0000000000
     40323      6193  TIP3      H2            -31.9631932858       32.8493240986      -28.9703719550  TIP3      6001            0.0000000000
     40324      6194  TIP3      OH2           -35.6452856499       32.4878845456      -38.1967645998  TIP3      6002            0.0000000000
     40325      6194  TIP3      H1            -35.6437188237       32.7768204643      -39.1321179696  TIP3      6002            0.0000000000
     40326      6194  TIP3      H2            -35.0811264042       33.1447484941      -37.7453194765  TIP3      6002            0.0000000000
     40327      6195  TIP3      OH2           -21.8220732954       34.1974178897      -31.3140309760  TIP3      6003            0.0000000000
     40328      6195  TIP3      H1            -22.7877686345       34.3344539955      -31.3906650666  TIP3      6003            0.0000000000
     40329      6195  TIP3      H2            -21.4430214585       34.8239476544      -31.9537714364  TIP3      6003            0.0000000000
     40330      6196  TIP3      OH2           -21.7491410527       22.3582069491      -30.5421179262  TIP3      6004            0.0000000000
     40331      6196  TIP3      H1            -22.5360745948       22.6573894942      -31.0394541930  TIP3      6004            0.0000000000
     40332      6196  TIP3      H2            -21.0166074645       22.7810903381      -31.0110020602  TIP3      6004            0.0000000000
     40333      6197  TIP3      OH2           -28.8910387123       20.3502651493      -32.8045406500  TIP3      6005            0.0000000000
     40334      6197  TIP3      H1            -29.4015119969       19.5314921257      -32.6797899453  TIP3      6005            0.0000000000
     40335      6197  TIP3      H2            -29.6091972088       20.9919037789      -32.5707513299  TIP3      6005            0.0000000000
     40336      6198  TIP3      OH2           -23.1742263751       35.3653888238      -34.8566723828  TIP3      6006            0.0000000000
     40337      6198  TIP3      H1            -22.9953111126       34.7036160360      -35.5678916928  TIP3      6006            0.0000000000
     40338      6198  TIP3      H2            -22.2893352860       35.7651654032      -34.7744706636  TIP3      6006            0.0000000000
     40339      6199  TIP3      OH2           -22.7532362109       33.3262186142      -36.6543675761  TIP3      6007            0.0000000000
     40340      6199  TIP3      H1            -22.5091472405       32.7527169618      -37.4077732631  TIP3      6007            0.0000000000
     40341      6199  TIP3      H2            -22.8920006050       32.6621910571      -35.9486737117  TIP3      6007            0.0000000000
     40342      6200  TIP3      OH2           -20.5039245354       32.1720174561      -27.8834452646  TIP3      6008            0.0000000000
     40343      6200  TIP3      H1            -20.4489170627       31.5008025091      -28.5952197774  TIP3      6008            0.0000000000
     40344      6200  TIP3      H2            -20.4800057491       33.0186165136      -28.3799784550  TIP3      6008            0.0000000000
     40345      6201  TIP3      OH2           -26.2352681163       29.0857656581      -38.2692636443  TIP3      6009            0.0000000000
     40346      6201  TIP3      H1            -26.8750812330       29.8173336608      -38.4242929697  TIP3      6009            0.0000000000
     40347      6201  TIP3      H2            -25.3970488458       29.4113678010      -38.6525515084  TIP3      6009            0.0000000000
     40348      6202  TIP3      OH2           -26.3182088604       28.2297182058      -41.1298982729  TIP3      6010            0.0000000000
     40349      6202  TIP3      H1            -25.6944184853       28.5513518362      -40.4466789885  TIP3      6010            0.0000000000
     40350      6202  TIP3      H2            -25.8172549995       27.4836099440      -41.4868828585  TIP3      6010            0.0000000000
     40351      6203  TIP3      OH2           -18.7243204963       28.4977716946      -30.2010567539  TIP3      6011            0.0000000000
     40352      6203  TIP3      H1            -19.2624962520       29.2993296882      -30.0221883447  TIP3      6011            0.0000000000
     40353      6203  TIP3      H2            -18.1064948222       28.8481587093      -30.8785370648  TIP3      6011            0.0000000000
     40354      6204  TIP3      OH2           -22.4796704774       29.1893947117      -37.1040284390  TIP3      6012            0.0000000000
     40355      6204  TIP3      H1            -23.2163862246       29.4454014649      -36.5035952359  TIP3      6012            0.0000000000
     40356      6204  TIP3      H2            -21.9313495005       28.6053641043      -36.5303052508  TIP3      6012            0.0000000000
     40357      6205  TIP3      OH2           -22.8864167413       27.3472137073      -28.4311243714  TIP3      6013            0.0000000000
     40358      6205  TIP3      H1            -22.9506925653       27.9426147557      -27.6564711373  TIP3      6013            0.0000000000
     40359      6205  TIP3      H2            -23.5111699999       27.8031154546      -29.0196619756  TIP3      6013            0.0000000000
     40360      6206  TIP3      OH2           -31.3675607358       29.8847221510      -35.3495002718  TIP3      6014            0.0000000000
     40361      6206  TIP3      H1            -31.3886592133       29.5532428406      -36.2748864130  TIP3      6014            0.0000000000
     40362      6206  TIP3      H2            -30.6847277498       29.3056623728      -34.9360340229  TIP3      6014            0.0000000000
     40363      6207  TIP3      OH2           -29.8496425200       33.1185957093      -32.9038183640  TIP3      6015            0.0000000000
     40364      6207  TIP3      H1            -29.2969509726       32.9623667671      -33.6924330193  TIP3      6015            0.0000000000
     40365      6207  TIP3      H2            -29.4428339548       32.5394837359      -32.2299605973  TIP3      6015            0.0000000000
     40366      6208  TIP3      OH2           -30.7418018648       28.3978089946      -31.6279503949  TIP3      6016            0.0000000000
     40367      6208  TIP3      H1            -30.3478516353       28.5547791868      -32.5180143657  TIP3      6016            0.0000000000
     40368      6208  TIP3      H2            -30.4904140297       29.2019081165      -31.1191977582  TIP3      6016            0.0000000000
     40369      6209  TIP3      OH2           -24.3972976691       34.4646217085      -30.5467598516  TIP3      6017            0.0000000000
     40370      6209  TIP3      H1            -24.0243182055       34.6599183710      -29.6621315451  TIP3      6017            0.0000000000
     40371      6209  TIP3      H2            -24.4626062917       33.4908775040      -30.4865925729  TIP3      6017            0.0000000000
     40372      6210  TIP3      OH2           -29.8683161797       32.7930753176      -26.9303430801  TIP3      6018            0.0000000000
     40373      6210  TIP3      H1            -30.6530385418       33.1871590276      -26.5256551694  TIP3      6018            0.0000000000
     40374      6210  TIP3      H2            -30.1882611074       32.5666811860      -27.8217683794  TIP3      6018            0.0000000000
     40375      6211  TIP3      OH2           -23.8764794592       28.8930030045      -39.4183793083  TIP3      6019            0.0000000000
     40376      6211  TIP3      H1            -23.2509835179       29.0420465589      -38.6750954999  TIP3      6019            0.0000000000
     40377      6211  TIP3      H2            -23.3819492894       29.2695747880      -40.1812075124  TIP3      6019            0.0000000000
     40378      6212  TIP3      OH2           -32.3625746856       29.3757457682      -27.7743370252  TIP3      6020            0.0000000000
     40379      6212  TIP3      H1            -32.3542273469       29.8603752827      -26.9261726005  TIP3      6020            0.0000000000
     40380      6212  TIP3      H2            -33.3145446291       29.3676748164      -27.9574583678  TIP3      6020            0.0000000000
     40381      6213  TIP3      OH2           -26.6143574007       35.6427591590      -35.2101037889  TIP3      6021            0.0000000000
     40382      6213  TIP3      H1            -25.7260239397       35.3143485766      -35.4012349780  TIP3      6021            0.0000000000
     40383      6213  TIP3      H2            -27.0317294164       35.6205376311      -36.0881304688  TIP3      6021            0.0000000000
     40384      6214  TIP3      OH2           -31.4865379890       35.2710440462      -26.6155012372  TIP3      6022            0.0000000000
     40385      6214  TIP3      H1            -31.5626392274       35.4854168155      -27.5724504304  TIP3      6022            0.0000000000
     40386      6214  TIP3      H2            -32.3943424285       34.9646559333      -26.4049420038  TIP3      6022            0.0000000000
     40387      6215  TIP3      OH2           -19.7754280066       20.1421367313      -39.1968985806  TIP3      6023            0.0000000000
     40388      6215  TIP3      H1            -20.7058447445       20.2739884227      -38.9122269848  TIP3      6023            0.0000000000
     40389      6215  TIP3      H2            -19.6261521794       20.9622337935      -39.7050275550  TIP3      6023            0.0000000000
     40390      6216  TIP3      OH2           -32.2054573827       28.9354315253      -37.9022199686  TIP3      6024            0.0000000000
     40391      6216  TIP3      H1            -32.8071112117       29.5907354913      -38.3203491422  TIP3      6024            0.0000000000
     40392      6216  TIP3      H2            -32.7535927766       28.1496601100      -37.8561236332  TIP3      6024            0.0000000000
     40393      6217  TIP3      OH2           -19.0304189107       34.3529740557      -41.2591641149  TIP3      6025            0.0000000000
     40394      6217  TIP3      H1            -18.7578716844       35.1900572774      -41.6582620446  TIP3      6025            0.0000000000
     40395      6217  TIP3      H2            -18.1939167499       33.8501818689      -41.1778675418  TIP3      6025            0.0000000000
     40396      6218  TIP3      OH2           -35.2921858561       31.5089062730      -29.1392265759  TIP3      6026            0.0000000000
     40397      6218  TIP3      H1            -36.1249912387       31.4616606426      -29.6270470436  TIP3      6026            0.0000000000
     40398      6218  TIP3      H2            -35.1700435399       30.5591741095      -28.9916215785  TIP3      6026            0.0000000000
     40399      6219  TIP3      OH2           -35.6556884371       34.6152126670      -32.8969613809  TIP3      6027            0.0000000000
     40400      6219  TIP3      H1            -35.2179196357       34.2322865188      -32.1199074034  TIP3      6027            0.0000000000
     40401      6219  TIP3      H2            -36.5005508496       34.8804171699      -32.4982774278  TIP3      6027            0.0000000000
     40402      6220  TIP3      OH2           -18.2545507826       35.0150551568      -26.2635190408  TIP3      6028            0.0000000000
     40403      6220  TIP3      H1            -18.3650240966       34.0863229455      -26.5348567489  TIP3      6028            0.0000000000
     40404      6220  TIP3      H2            -19.1727267428       35.2346270142      -25.9735860201  TIP3      6028            0.0000000000
     40405      6221  TIP3      OH2           -27.9135737041       34.8456300744      -27.0708204832  TIP3      6029            0.0000000000
     40406      6221  TIP3      H1            -27.5258383306       34.6521773285      -26.2039681087  TIP3      6029            0.0000000000
     40407      6221  TIP3      H2            -28.7142850950       34.2739362840      -27.1042260066  TIP3      6029            0.0000000000
     40408      6222  TIP3      OH2           -33.2183874772       32.9899866728      -27.9386884203  TIP3      6030            0.0000000000
     40409      6222  TIP3      H1            -33.1826721706       32.5663643628      -27.0531216704  TIP3      6030            0.0000000000
     40410      6222  TIP3      H2            -34.0679114397       32.6274481247      -28.2744514389  TIP3      6030            0.0000000000
     40411      6223  TIP3      OH2           -31.0805159761       21.6106789211      -32.1214040523  TIP3      6031            0.0000000000
     40412      6223  TIP3      H1            -31.9562001715       21.3062229200      -32.4454270283  TIP3      6031            0.0000000000
     40413      6223  TIP3      H2            -31.3603022137       22.2233176333      -31.4163512862  TIP3      6031            0.0000000000
     40414      6224  TIP3      OH2           -26.2550193006       20.8448968113      -28.8565515394  TIP3      6032            0.0000000000
     40415      6224  TIP3      H1            -25.9197044971       20.5202720510      -27.9956259477  TIP3      6032            0.0000000000
     40416      6224  TIP3      H2            -27.2277755102       20.9055522373      -28.7138587965  TIP3      6032            0.0000000000
     40417      6225  TIP3      OH2           -23.2493177445       24.7696913162      -27.9204279572  TIP3      6033            0.0000000000
     40418      6225  TIP3      H1            -23.8967656743       24.7980176523      -27.1819754560  TIP3      6033            0.0000000000
     40419      6225  TIP3      H2            -23.1335914858       25.7153689325      -28.1630576132  TIP3      6033            0.0000000000
     40420      6226  TIP3      OH2           -22.5605801121       29.7885425190      -41.5022426405  TIP3      6034            0.0000000000
     40421      6226  TIP3      H1            -22.5874590521       29.9775218238      -42.4484558721  TIP3      6034            0.0000000000
     40422      6226  TIP3      H2            -21.6638866188       30.1175886410      -41.3166206631  TIP3      6034            0.0000000000
     40423      6227  TIP3      OH2           -26.6482390604       23.8733240437      -41.1743000949  TIP3      6035            0.0000000000
     40424      6227  TIP3      H1            -27.1201268907       23.9522913507      -40.3291062453  TIP3      6035            0.0000000000
     40425      6227  TIP3      H2            -27.0882982160       23.0942939329      -41.5294543365  TIP3      6035            0.0000000000
     40426      6228  TIP3      OH2           -30.9985411584       25.9090629531      -30.7542919283  TIP3      6036            0.0000000000
     40427      6228  TIP3      H1            -31.4862671045       26.0803774223      -29.9287964335  TIP3      6036            0.0000000000
     40428      6228  TIP3      H2            -30.9002726468       26.8271730373      -31.1062343468  TIP3      6036            0.0000000000
     40429      6229  TIP3      OH2           -30.9660549120       26.3910218528      -35.7441851541  TIP3      6037            0.0000000000
     40430      6229  TIP3      H1            -31.9445711395       26.3545146885      -35.8089869331  TIP3      6037            0.0000000000
     40431      6229  TIP3      H2            -30.7334274742       26.0990950557      -36.6495602411  TIP3      6037            0.0000000000
     40432      6230  TIP3      OH2           -25.5546503210       26.7543501351      -37.2685966499  TIP3      6038            0.0000000000
     40433      6230  TIP3      H1            -25.7777440469       27.6257485273      -37.6942572023  TIP3      6038            0.0000000000
     40434      6230  TIP3      H2            -24.8109066504       26.4669266206      -37.8354334640  TIP3      6038            0.0000000000
     40435      6231  TIP3      OH2           -26.9486015519       27.2263914299      -25.4964684671  TIP3      6039            0.0000000000
     40436      6231  TIP3      H1            -27.2087833881       26.3343864642      -25.1729677051  TIP3      6039            0.0000000000
     40437      6231  TIP3      H2            -26.0108518622       27.2497432135      -25.2686962210  TIP3      6039            0.0000000000
     40438      6232  TIP3      OH2           -24.3421222947       26.3655400267      -34.1648531825  TIP3      6040            0.0000000000
     40439      6232  TIP3      H1            -24.6297917253       27.1065324517      -34.7208530499  TIP3      6040            0.0000000000
     40440      6232  TIP3      H2            -24.7262645515       25.6114689100      -34.6346013694  TIP3      6040            0.0000000000
     40441      6233  TIP3      OH2           -33.6996234105       26.2445246310      -29.3531485372  TIP3      6041            0.0000000000
     40442      6233  TIP3      H1            -33.3765993783       26.5348428644      -28.4921791706  TIP3      6041            0.0000000000
     40443      6233  TIP3      H2            -33.9803890862       25.3255070382      -29.1225534244  TIP3      6041            0.0000000000
     40444      6234  TIP3      OH2           -29.9459648742       24.2345225285      -41.6993511996  TIP3      6042            0.0000000000
     40445      6234  TIP3      H1            -30.2603025565       23.7476487256      -40.9261864975  TIP3      6042            0.0000000000
     40446      6234  TIP3      H2            -30.3702120132       25.1153855740      -41.5910410123  TIP3      6042            0.0000000000
     40447      6235  TIP3      OH2           -36.2361069214       23.8758737009      -35.1013797695  TIP3      6043            0.0000000000
     40448      6235  TIP3      H1            -35.9429464359       23.5128068863      -34.2464929756  TIP3      6043            0.0000000000
     40449      6235  TIP3      H2            -36.3785223498       23.0774654277      -35.6245095610  TIP3      6043            0.0000000000
     40450      6236  TIP3      OH2           -35.1435294951       24.8590270790      -39.6846331921  TIP3      6044            0.0000000000
     40451      6236  TIP3      H1            -34.7858855492       24.5613935363      -40.5430760859  TIP3      6044            0.0000000000
     40452      6236  TIP3      H2            -35.7877974236       25.5308759188      -39.9937916577  TIP3      6044            0.0000000000
     40453      6237  TIP3      OH2           -25.4083747829       27.8320263313      -29.8583987577  TIP3      6045            0.0000000000
     40454      6237  TIP3      H1            -24.9197001757       27.1121655636      -30.3207380092  TIP3      6045            0.0000000000
     40455      6237  TIP3      H2            -25.9498409620       27.3289569381      -29.2093790267  TIP3      6045            0.0000000000
     40456      6238  TIP3      OH2           -27.9964599233       23.7388958924      -34.8811367960  TIP3      6046            0.0000000000
     40457      6238  TIP3      H1            -28.7816529847       23.8409112106      -34.3176260348  TIP3      6046            0.0000000000
     40458      6238  TIP3      H2            -27.4134210565       23.1827213182      -34.3092874953  TIP3      6046            0.0000000000
     40459      6239  TIP3      OH2           -33.6084939731       25.5392399051      -36.0190595657  TIP3      6047            0.0000000000
     40460      6239  TIP3      H1            -34.1077221722       25.7195841751      -36.8428829863  TIP3      6047            0.0000000000
     40461      6239  TIP3      H2            -33.2850772927       24.6319083858      -36.2254605532  TIP3      6047            0.0000000000
     40462      6240  TIP3      OH2           -30.7573981303       25.4277469646      -38.2327877921  TIP3      6048            0.0000000000
     40463      6240  TIP3      H1            -29.7944207014       25.3383209129      -38.1211625737  TIP3      6048            0.0000000000
     40464      6240  TIP3      H2            -30.8036875774       25.9864513933      -39.0413777474  TIP3      6048            0.0000000000
     40465      6241  TIP3      OH2           -24.2243804985       23.0130089568      -31.6933184349  TIP3      6049            0.0000000000
     40466      6241  TIP3      H1            -25.0508255970       22.8896966429      -31.1976228013  TIP3      6049            0.0000000000
     40467      6241  TIP3      H2            -24.3269081311       22.4397176507      -32.4717551339  TIP3      6049            0.0000000000
     40468      6242  TIP3      OH2           -30.9260561591       26.5237367369      -40.8242146680  TIP3      6050            0.0000000000
     40469      6242  TIP3      H1            -31.6143659075       26.5745740375      -41.5072902945  TIP3      6050            0.0000000000
     40470      6242  TIP3      H2            -30.2310657553       27.0995579734      -41.2124994742  TIP3      6050            0.0000000000
     40471      6243  TIP3      OH2           -33.0285541660       31.3065063866      -25.8437057173  TIP3      6051            0.0000000000
     40472      6243  TIP3      H1            -32.3288935636       31.4999168801      -25.1961459987  TIP3      6051            0.0000000000
     40473      6243  TIP3      H2            -33.8316442843       31.4066766297      -25.2918566804  TIP3      6051            0.0000000000
     40474      6244  TIP3      OH2           -27.5887349896       26.5475435775      -33.2617675224  TIP3      6052            0.0000000000
     40475      6244  TIP3      H1            -26.7066715182       26.2826649978      -33.5509933219  TIP3      6052            0.0000000000
     40476      6244  TIP3      H2            -27.7817270276       25.9032812951      -32.5618546448  TIP3      6052            0.0000000000
     40477      6245  TIP3      OH2           -32.8663520657       22.9461009413      -36.4883430109  TIP3      6053            0.0000000000
     40478      6245  TIP3      H1            -33.3924132958       22.2739703145      -35.9955987908  TIP3      6053            0.0000000000
     40479      6245  TIP3      H2            -32.7839744557       22.4785133704      -37.3349330302  TIP3      6053            0.0000000000
     40480      6246  TIP3      OH2           -28.4873107647       24.7532223713      -30.5422213742  TIP3      6054            0.0000000000
     40481      6246  TIP3      H1            -29.3380784920       25.2240435201      -30.6595031629  TIP3      6054            0.0000000000
     40482      6246  TIP3      H2            -27.9586771785       25.3366988602      -29.9806507129  TIP3      6054            0.0000000000
     40483      6247  TIP3      OH2           -27.9838871016       31.0962795464      -38.5669879562  TIP3      6055            0.0000000000
     40484      6247  TIP3      H1            -28.7267369463       30.6485973116      -39.0466602645  TIP3      6055            0.0000000000
     40485      6247  TIP3      H2            -28.4623427508       31.3406282899      -37.7299213170  TIP3      6055            0.0000000000
     40486      6248  TIP3      OH2           -20.5608137842       30.4088280163      -29.8341191954  TIP3      6056            0.0000000000
     40487      6248  TIP3      H1            -20.1124483238       31.0106124778      -30.4731468684  TIP3      6056            0.0000000000
     40488      6248  TIP3      H2            -21.4913544155       30.4536610356      -30.1160075271  TIP3      6056            0.0000000000
     40489      6249  TIP3      OH2           -24.0388721465       24.0416078065      -40.6620939028  TIP3      6057            0.0000000000
     40490      6249  TIP3      H1            -24.9514071751       24.1469345346      -40.9925197353  TIP3      6057            0.0000000000
     40491      6249  TIP3      H2            -23.9255640075       24.8682939617      -40.1543729248  TIP3      6057            0.0000000000
     40492      6250  TIP3      OH2           -26.4961714854       32.2705989121      -28.0263327443  TIP3      6058            0.0000000000
     40493      6250  TIP3      H1            -26.9233080720       31.4036250759      -28.0899581910  TIP3      6058            0.0000000000
     40494      6250  TIP3      H2            -26.6877707603       32.5264414873      -27.1215415755  TIP3      6058            0.0000000000
     40495      6251  TIP3      OH2           -23.4371188135       26.1229158260      -38.8847583592  TIP3      6059            0.0000000000
     40496      6251  TIP3      H1            -22.7719689434       25.9376513945      -38.1918817164  TIP3      6059            0.0000000000
     40497      6251  TIP3      H2            -23.0519445802       26.8826152121      -39.3461882795  TIP3      6059            0.0000000000
     40498      6252  TIP3      OH2           -33.2362883586       30.7270010587      -33.3521228145  TIP3      6060            0.0000000000
     40499      6252  TIP3      H1            -32.6184064325       30.3340523308      -34.0085821139  TIP3      6060            0.0000000000
     40500      6252  TIP3      H2            -33.4850810223       29.9312921249      -32.8246862365  TIP3      6060            0.0000000000
     40501      6253  TIP3      OH2           -25.8962864102       32.5136539397      -39.5932250974  TIP3      6061            0.0000000000
     40502      6253  TIP3      H1            -26.2827529756       33.4051747652      -39.4311781662  TIP3      6061            0.0000000000
     40503      6253  TIP3      H2            -26.6748113540       31.9385480238      -39.4225107784  TIP3      6061            0.0000000000
     40504      6254  TIP3      OH2           -35.5454202345       28.8619202992      -28.1794428653  TIP3      6062            0.0000000000
     40505      6254  TIP3      H1            -35.7040460965       28.1802264100      -27.4958607936  TIP3      6062            0.0000000000
     40506      6254  TIP3      H2            -36.0921039619       28.5537072007      -28.9166851428  TIP3      6062            0.0000000000
     40507      6255  TIP3      OH2           -29.5142005487       28.4725674830      -25.6742708772  TIP3      6063            0.0000000000
     40508      6255  TIP3      H1            -29.5190050461       28.2949197977      -26.6240243318  TIP3      6063            0.0000000000
     40509      6255  TIP3      H2            -28.5582958473       28.3493749166      -25.5061201208  TIP3      6063            0.0000000000
     40510      6256  TIP3      OH2           -24.2983386993       34.4379862264      -27.6168682657  TIP3      6064            0.0000000000
     40511      6256  TIP3      H1            -25.2652579456       34.4308645584      -27.7082186041  TIP3      6064            0.0000000000
     40512      6256  TIP3      H2            -24.1860714893       33.8132779325      -26.8730311803  TIP3      6064            0.0000000000
     40513      6257  TIP3      OH2           -18.6474117525       26.0307900640      -39.1498865938  TIP3      6065            0.0000000000
     40514      6257  TIP3      H1            -19.2729087790       25.8770492970      -39.8826609543  TIP3      6065            0.0000000000
     40515      6257  TIP3      H2            -18.5089141215       26.9896184122      -39.2983928709  TIP3      6065            0.0000000000
     40516      6258  TIP3      OH2           -18.0966193400       32.2358460280      -26.8494381254  TIP3      6066            0.0000000000
     40517      6258  TIP3      H1            -19.0580716113       32.2498930849      -27.0881702730  TIP3      6066            0.0000000000
     40518      6258  TIP3      H2            -17.7391133450       31.9408156391      -27.7185879931  TIP3      6066            0.0000000000
     40519      6259  TIP3      OH2           -20.0021101209       34.1590992871      -38.7083634439  TIP3      6067            0.0000000000
     40520      6259  TIP3      H1            -20.6831780957       33.4719966041      -38.7247537463  TIP3      6067            0.0000000000
     40521      6259  TIP3      H2            -19.8055742074       34.3039487332      -39.6564843372  TIP3      6067            0.0000000000
     40522      6260  TIP3      OH2           -23.0098154522       29.9502584991      -31.7731667309  TIP3      6068            0.0000000000
     40523      6260  TIP3      H1            -23.9330021346       29.9103207482      -32.0752810970  TIP3      6068            0.0000000000
     40524      6260  TIP3      H2            -22.6158412213       29.1810521884      -32.2235928374  TIP3      6068            0.0000000000
     40525      6261  TIP3      OH2           -30.2036517758       34.2111946618      -35.8231365123  TIP3      6069            0.0000000000
     40526      6261  TIP3      H1            -30.0146856194       34.9982550338      -36.3749198354  TIP3      6069            0.0000000000
     40527      6261  TIP3      H2            -31.1298538088       34.1017341929      -36.0410654520  TIP3      6069            0.0000000000
     40528      6262  TIP3      OH2           -35.0480277917       28.5219146039      -41.0211480071  TIP3      6070            0.0000000000
     40529      6262  TIP3      H1            -34.4584046412       29.0589199404      -40.4679909044  TIP3      6070            0.0000000000
     40530      6262  TIP3      H2            -35.9321618398       28.6382951756      -40.6419396882  TIP3      6070            0.0000000000
     40531      6263  TIP3      OH2           -29.2370623301       31.6349879025      -36.2920524213  TIP3      6071            0.0000000000
     40532      6263  TIP3      H1            -29.4528261533       32.5821130266      -36.1799146200  TIP3      6071            0.0000000000
     40533      6263  TIP3      H2            -29.6418060677       31.2138221779      -35.5234079510  TIP3      6071            0.0000000000
     40534      6264  TIP3      OH2           -27.9280891736       35.6649250540      -29.9983253552  TIP3      6072            0.0000000000
     40535      6264  TIP3      H1            -28.2816920166       36.5450523181      -29.7320003467  TIP3      6072            0.0000000000
     40536      6264  TIP3      H2            -27.7226035929       35.3199124540      -29.1042896221  TIP3      6072            0.0000000000
     40537      6265  TIP3      OH2           -30.6486531281      -36.9004530205      -37.1051047345  TIP3      6073            0.0000000000
     40538      6265  TIP3      H1            -31.4544796322      -36.3903213702      -36.9450457811  TIP3      6073            0.0000000000
     40539      6265  TIP3      H2            -30.0270265900      -36.4009460756      -36.5112737603  TIP3      6073            0.0000000000
     40540      6266  TIP3      OH2           -25.3269003209       31.7278920949      -30.3271624155  TIP3      6074            0.0000000000
     40541      6266  TIP3      H1            -25.4747403434       31.9972536783      -29.3860215444  TIP3      6074            0.0000000000
     40542      6266  TIP3      H2            -24.8454116322       30.8938255962      -30.1871086846  TIP3      6074            0.0000000000
     40543      6267  TIP3      OH2           -22.8253648804       33.0526635661      -40.5231694748  TIP3      6075            0.0000000000
     40544      6267  TIP3      H1            -22.5966951623       32.4218775596      -39.8198348878  TIP3      6075            0.0000000000
     40545      6267  TIP3      H2            -23.7672505138       32.8318845205      -40.6158760592  TIP3      6075            0.0000000000
     40546      6268  TIP3      OH2           -22.3659898570       36.3192844753      -27.8936581174  TIP3      6076            0.0000000000
     40547      6268  TIP3      H1            -23.0768307068       35.6481370055      -27.7217459084  TIP3      6076            0.0000000000
     40548      6268  TIP3      H2            -22.8953000646       37.1237599562      -27.9669383958  TIP3      6076            0.0000000000
     40549      6269  TIP3      OH2           -34.3076308031       23.7656574274      -28.3414778174  TIP3      6077            0.0000000000
     40550      6269  TIP3      H1            -34.6950074368       23.9693789977      -27.4680475563  TIP3      6077            0.0000000000
     40551      6269  TIP3      H2            -34.3250740305       22.7963304444      -28.2982065739  TIP3      6077            0.0000000000
     40552      6270  TIP3      OH2           -21.9469193493       31.3722804143      -38.5586585290  TIP3      6078            0.0000000000
     40553      6270  TIP3      H1            -22.2142205459       30.6042325694      -38.0100557549  TIP3      6078            0.0000000000
     40554      6270  TIP3      H2            -20.9854435802       31.2147788155      -38.5553452380  TIP3      6078            0.0000000000
     40555      6271  TIP3      OH2           -33.6108503827       35.7329995376      -29.9898880115  TIP3      6079            0.0000000000
     40556      6271  TIP3      H1            -34.0677456845       34.9660499526      -29.6158945468  TIP3      6079            0.0000000000
     40557      6271  TIP3      H2            -34.2764529612       36.4376088217      -29.8336718935  TIP3      6079            0.0000000000
     40558      6272  TIP3      OH2           -30.0320443534       33.6689143226      -39.9254694506  TIP3      6080            0.0000000000
     40559      6272  TIP3      H1            -29.3421979577       33.1457328743      -39.4837891137  TIP3      6080            0.0000000000
     40560      6272  TIP3      H2            -29.7019623542       34.5890839794      -39.8097072565  TIP3      6080            0.0000000000
     40561      6273  TIP3      OH2           -33.7647464744       30.6815612566      -39.2291985165  TIP3      6081            0.0000000000
     40562      6273  TIP3      H1            -34.5509655313       31.1740590254      -38.9135234058  TIP3      6081            0.0000000000
     40563      6273  TIP3      H2            -33.3896306811       31.2770440389      -39.8985726917  TIP3      6081            0.0000000000
     40564      6274  TIP3      OH2           -25.6635858706       23.7685028077      -29.0495349166  TIP3      6082            0.0000000000
     40565      6274  TIP3      H1            -24.7344547641       23.9346337778      -28.8017845787  TIP3      6082            0.0000000000
     40566      6274  TIP3      H2            -25.7567186330       22.8095535222      -28.9533133601  TIP3      6082            0.0000000000
     40567      6275  TIP3      OH2           -24.8672635044       23.1190124995      -38.1157124425  TIP3      6083            0.0000000000
     40568      6275  TIP3      H1            -24.4276557511       23.4927772172      -38.9054914622  TIP3      6083            0.0000000000
     40569      6275  TIP3      H2            -24.2639176215       23.3523013069      -37.3832793427  TIP3      6083            0.0000000000
     40570      6276  TIP3      OH2           -26.9831093737       34.9797110027      -39.1071994929  TIP3      6084            0.0000000000
     40571      6276  TIP3      H1            -27.7740760191       35.5504677055      -39.1603900532  TIP3      6084            0.0000000000
     40572      6276  TIP3      H2            -26.5201106262       35.3293748658      -39.9030805928  TIP3      6084            0.0000000000
     40573      6277  TIP3      OH2           -27.8567551162       25.0420938471      -37.3602093425  TIP3      6085            0.0000000000
     40574      6277  TIP3      H1            -27.0663149968       25.6256547938      -37.3634713735  TIP3      6085            0.0000000000
     40575      6277  TIP3      H2            -27.8683081386       24.6713551868      -36.4514429086  TIP3      6085            0.0000000000
     40576      6278  TIP3      OH2           -26.7300648597       26.1210534689      -28.1209364590  TIP3      6086            0.0000000000
     40577      6278  TIP3      H1            -26.9572118967       26.0996224392      -27.1746794723  TIP3      6086            0.0000000000
     40578      6278  TIP3      H2            -26.3506271731       25.2324360126      -28.2971739695  TIP3      6086            0.0000000000
     40579      6279  TIP3      OH2           -27.0107521335       21.7598326716      -36.8321192909  TIP3      6087            0.0000000000
     40580      6279  TIP3      H1            -27.4110024658       22.3505058443      -36.1586969340  TIP3      6087            0.0000000000
     40581      6279  TIP3      H2            -26.2231747362       22.3031680692      -37.0860982583  TIP3      6087            0.0000000000
     40582      6280  TIP3      OH2           -29.3281640394      -37.1547088143      -39.5249532033  TIP3      6088            0.0000000000
     40583      6280  TIP3      H1            -29.2933813797      -36.2432223727      -39.8603227440  TIP3      6088            0.0000000000
     40584      6280  TIP3      H2            -29.8422990757      -37.0239762492      -38.6968996796  TIP3      6088            0.0000000000
     40585      6281  TIP3      OH2           -31.3845370632       22.8634304383      -39.4982550684  TIP3      6089            0.0000000000
     40586      6281  TIP3      H1            -31.4256025298       23.7125230482      -39.0175265204  TIP3      6089            0.0000000000
     40587      6281  TIP3      H2            -30.5291625373       22.5332772542      -39.1738318711  TIP3      6089            0.0000000000
     40588      6282  TIP3      OH2           -21.0764094938       23.3653567753      -27.1945819405  TIP3      6090            0.0000000000
     40589      6282  TIP3      H1            -21.9429271670       23.8098071131      -27.3063885378  TIP3      6090            0.0000000000
     40590      6282  TIP3      H2            -20.6401440252       23.6124129260      -28.0347395708  TIP3      6090            0.0000000000
     40591      6283  TIP3      OH2           -22.0061827952       27.7300552208      -33.3222072546  TIP3      6091            0.0000000000
     40592      6283  TIP3      H1            -22.7788719830       27.1357275691      -33.3596274209  TIP3      6091            0.0000000000
     40593      6283  TIP3      H2            -21.3410649030       27.1845055459      -32.8350915237  TIP3      6091            0.0000000000
     40594      6284  TIP3      OH2           -33.0426674977       33.2319051979      -40.7407762872  TIP3      6092            0.0000000000
     40595      6284  TIP3      H1            -32.2741285780       33.4474548790      -40.1875803642  TIP3      6092            0.0000000000
     40596      6284  TIP3      H2            -32.5672597102       32.7731092948      -41.4586723771  TIP3      6092            0.0000000000
     40597      6285  TIP3      OH2           -34.0861446274       26.0586200706      -41.9624289876  TIP3      6093            0.0000000000
     40598      6285  TIP3      H1            -34.3081108232       26.8897266731      -41.5022177284  TIP3      6093            0.0000000000
     40599      6285  TIP3      H2            -34.9403921133       25.6004113198      -41.9976843330  TIP3      6093            0.0000000000
     40600      6286  TIP3      OH2           -33.5025435598       20.8719160062      -32.8569412126  TIP3      6094            0.0000000000
     40601      6286  TIP3      H1            -33.5667713747       20.6245663779      -33.8062224278  TIP3      6094            0.0000000000
     40602      6286  TIP3      H2            -33.8622850909       20.0650032343      -32.4167334662  TIP3      6094            0.0000000000
     40603      6287  TIP3      OH2           -34.4387609588       34.6157034274      -36.4344940350  TIP3      6095            0.0000000000
     40604      6287  TIP3      H1            -35.2551177428       35.0592151654      -36.7402354579  TIP3      6095            0.0000000000
     40605      6287  TIP3      H2            -33.8276113663       35.2700966176      -36.8228265158  TIP3      6095            0.0000000000
     40606      6288  TIP3      OH2           -30.7058184324       35.9039327819      -23.3691112250  TIP3      6096            0.0000000000
     40607      6288  TIP3      H1            -29.8225717571       35.5927081744      -23.6210678078  TIP3      6096            0.0000000000
     40608      6288  TIP3      H2            -31.1396133176       35.7949187352      -24.2211719887  TIP3      6096            0.0000000000
     40609      6289  TIP3      OH2           -26.0930367703       35.9581006631      -41.5276068468  TIP3      6097            0.0000000000
     40610      6289  TIP3      H1            -26.7870183062       35.6759042096      -42.1560199242  TIP3      6097            0.0000000000
     40611      6289  TIP3      H2            -25.4898939614       36.4298414920      -42.1111722021  TIP3      6097            0.0000000000
     40612      6290  TIP3      OH2           -24.5611683082       34.6758058018      -24.7889819609  TIP3      6098            0.0000000000
     40613      6290  TIP3      H1            -24.2358970812       33.7591137357      -24.9514090389  TIP3      6098            0.0000000000
     40614      6290  TIP3      H2            -23.6980699071       34.9930829063      -24.4408915800  TIP3      6098            0.0000000000
     40615      6291  TIP3      OH2           -21.8960246346       35.6134573990      -42.2004507331  TIP3      6099            0.0000000000
     40616      6291  TIP3      H1            -21.9272338781       34.9861398664      -41.4585468284  TIP3      6099            0.0000000000
     40617      6291  TIP3      H2            -21.0140544074       35.4319017829      -42.5571649312  TIP3      6099            0.0000000000
     40618      6292  TIP3      OH2           -35.3177078186       31.2480490768      -24.4110480357  TIP3      6100            0.0000000000
     40619      6292  TIP3      H1            -35.9398015405       30.7227749068      -24.9542872037  TIP3      6100            0.0000000000
     40620      6292  TIP3      H2            -35.9310524064       31.5834179704      -23.7299943321  TIP3      6100            0.0000000000
     40621      6293  TIP3      OH2           -31.5232189478       31.1673215785      -41.8239097395  TIP3      6101            0.0000000000
     40622      6293  TIP3      H1            -30.9288404605       30.8407808618      -41.1213981431  TIP3      6101            0.0000000000
     40623      6293  TIP3      H2            -30.8950769757       31.5449336866      -42.4674501603  TIP3      6101            0.0000000000
     40624      6294  TIP3      OH2           -23.0906858989       31.0674843219      -28.0082692856  TIP3      6102            0.0000000000
     40625      6294  TIP3      H1            -22.2031510016       31.4156803628      -27.7945786688  TIP3      6102            0.0000000000
     40626      6294  TIP3      H2            -23.5473745922       31.3554273803      -27.1901191357  TIP3      6102            0.0000000000
     40627      6295  TIP3      OH2           -34.6985223409       28.2919614231      -25.1711966163  TIP3      6103            0.0000000000
     40628      6295  TIP3      H1            -34.2931569616       27.4523970327      -24.8769808288  TIP3      6103            0.0000000000
     40629      6295  TIP3      H2            -34.3839065494       28.9117371365      -24.4868428735  TIP3      6103            0.0000000000
     40630      6296  TIP3      OH2           -29.9305621774       29.8391041135      -39.9879478642  TIP3      6104            0.0000000000
     40631      6296  TIP3      H1            -30.5989725934       29.2744080110      -39.5584916450  TIP3      6104            0.0000000000
     40632      6296  TIP3      H2            -29.5827289429       29.2108417205      -40.6622528023  TIP3      6104            0.0000000000
     40633      6297  TIP3      OH2           -30.9041187457       27.1947898773      -28.1690236327  TIP3      6105            0.0000000000
     40634      6297  TIP3      H1            -31.5418779703       27.8887858440      -27.9003973353  TIP3      6105            0.0000000000
     40635      6297  TIP3      H2            -30.2175287328       27.7565778254      -28.5648396773  TIP3      6105            0.0000000000
     40636      6298  TIP3      OH2           -29.0647304076       28.1129138609      -41.9446311315  TIP3      6106            0.0000000000
     40637      6298  TIP3      H1            -28.9149631271       28.0007665170      -42.8987058688  TIP3      6106            0.0000000000
     40638      6298  TIP3      H2            -28.1376761440       28.1098961839      -41.5888147958  TIP3      6106            0.0000000000
     40639      6299  TIP3      OH2           -19.9431945553       30.6827851488       42.3150615592  TIP3      6107            0.0000000000
     40640      6299  TIP3      H1            -20.3023806121       31.0219599661       41.4832958660  TIP3      6107            0.0000000000
     40641      6299  TIP3      H2            -19.6072464874       31.4832091174       42.7395730986  TIP3      6107            0.0000000000
     40642      6300  TIP3      OH2           -29.8973149425       25.1058402844      -26.8322395969  TIP3      6108            0.0000000000
     40643      6300  TIP3      H1            -29.8833402584       24.4257664750      -27.5426953017  TIP3      6108            0.0000000000
     40644      6300  TIP3      H2            -30.0435542264       25.9252283984      -27.3534393553  TIP3      6108            0.0000000000
     40645      6301  TIP3      OH2           -29.8274739880       23.1779325144      -28.8668464378  TIP3      6109            0.0000000000
     40646      6301  TIP3      H1            -29.2621531056       23.5594673556      -29.5824718652  TIP3      6109            0.0000000000
     40647      6301  TIP3      H2            -30.7313223353       23.3851570237      -29.1778491026  TIP3      6109            0.0000000000
     40648      6302  TIP3      OH2           -28.4544389769       29.0934681702      -28.7074183162  TIP3      6110            0.0000000000
     40649      6302  TIP3      H1            -27.8350005425       29.1328615796      -29.4547519214  TIP3      6110            0.0000000000
     40650      6302  TIP3      H2            -29.1654317636       29.6812921312      -29.0299052823  TIP3      6110            0.0000000000
     40651      6303  TIP3      OH2           -24.0828844479       26.7821725578      -24.1125208122  TIP3      6111            0.0000000000
     40652      6303  TIP3      H1            -23.9850107849       25.8709746102      -24.4335549074  TIP3      6111            0.0000000000
     40653      6303  TIP3      H2            -23.8357277254       27.3264003346      -24.8914226120  TIP3      6111            0.0000000000
     40654      6304  TIP3      OH2           -22.6808782061       28.6431854352      -25.9492274262  TIP3      6112            0.0000000000
     40655      6304  TIP3      H1            -23.0104971575       29.5646656709      -25.9231900731  TIP3      6112            0.0000000000
     40656      6304  TIP3      H2            -21.7209440332       28.7998792054      -25.8894390161  TIP3      6112            0.0000000000
     40657      6305  TIP3      OH2           -32.2312815719       26.2299947493      -25.1046816249  TIP3      6113            0.0000000000
     40658      6305  TIP3      H1            -32.8258766789       25.4887212644      -25.3327537460  TIP3      6113            0.0000000000
     40659      6305  TIP3      H2            -31.4698195566       26.0599508599      -25.6819971938  TIP3      6113            0.0000000000
     40660      6306  TIP3      OH2           -28.9998009288       20.6117493667      -28.7820144781  TIP3      6114            0.0000000000
     40661      6306  TIP3      H1            -29.4040711699       21.5101123914      -28.8050025983  TIP3      6114            0.0000000000
     40662      6306  TIP3      H2            -29.7362691496       20.1049060991      -29.1779389762  TIP3      6114            0.0000000000
     40663      6307  TIP3      OH2           -27.9628216182       24.7191198509      -24.5946397643  TIP3      6115            0.0000000000
     40664      6307  TIP3      H1            -28.5646855412       24.3470906929      -23.9119276426  TIP3      6115            0.0000000000
     40665      6307  TIP3      H2            -28.5851086325       24.7255956132      -25.3446268021  TIP3      6115            0.0000000000
     40666      6308  TIP3      OH2           -24.9194499098       24.5781716082      -25.7202720275  TIP3      6116            0.0000000000
     40667      6308  TIP3      H1            -25.8608371896       24.4232161203      -25.5144732097  TIP3      6116            0.0000000000
     40668      6308  TIP3      H2            -24.5159252308       23.8750399437      -25.1684000849  TIP3      6116            0.0000000000
     40669      6309  TIP3      OH2           -24.2074412077       22.4061564013      -24.0847563529  TIP3      6117            0.0000000000
     40670      6309  TIP3      H1            -23.6843180255       21.5953782110      -23.9533940186  TIP3      6117            0.0000000000
     40671      6309  TIP3      H2            -23.9205413076       22.9549265946      -23.3099206617  TIP3      6117            0.0000000000
     40672      6310  TIP3      OH2           -33.5673166582       23.8652378317      -24.7919350316  TIP3      6118            0.0000000000
     40673      6310  TIP3      H1            -33.8149351964       22.9868759182      -25.1179683199  TIP3      6118            0.0000000000
     40674      6310  TIP3      H2            -33.4979841080       23.6728475226      -23.8224321794  TIP3      6118            0.0000000000
     40675      6311  TIP3      OH2           -29.2975435834       19.8802990989      -26.2620887183  TIP3      6119            0.0000000000
     40676      6311  TIP3      H1            -28.9463842151       18.9777268472      -26.2808058547  TIP3      6119            0.0000000000
     40677      6311  TIP3      H2            -29.1437105121       20.1526827436      -27.2007551675  TIP3      6119            0.0000000000
     40678      6312  TIP3      OH2           -28.7187975388       21.6730146308      -24.1910301931  TIP3      6120            0.0000000000
     40679      6312  TIP3      H1            -29.2625456566       21.1787920802      -24.8270806005  TIP3      6120            0.0000000000
     40680      6312  TIP3      H2            -29.3477584515       22.2872213578      -23.7655347184  TIP3      6120            0.0000000000
     40681      6313  TIP3      OH2           -35.7237484145       32.5422955500      -41.1509152396  TIP3      6121            0.0000000000
     40682      6313  TIP3      H1            -34.7917226539       32.8582108037      -41.1173955561  TIP3      6121            0.0000000000
     40683      6313  TIP3      H2            -35.9529583363       32.7161099531      -42.0725766328  TIP3      6121            0.0000000000
     40684      6314  TIP3      OH2           -35.9700012365       37.3152956394      -34.4639790944  TIP3      6122            0.0000000000
     40685      6314  TIP3      H1            -35.9920842511       36.3806622052      -34.2118575334  TIP3      6122            0.0000000000
     40686      6314  TIP3      H2            -35.4804225782       37.7242433980      -33.7265731296  TIP3      6122            0.0000000000
     40687      6315  TIP3      OH2           -20.1748000978       32.6110863852      -23.6622515020  TIP3      6123            0.0000000000
     40688      6315  TIP3      H1            -21.0402781327       32.8963718408      -24.0116838972  TIP3      6123            0.0000000000
     40689      6315  TIP3      H2            -19.8186027756       33.3903692759      -23.1808157498  TIP3      6123            0.0000000000
     40690      6316  TIP3      OH2           -19.0709812955       30.7626122863      -38.4514321685  TIP3      6124            0.0000000000
     40691      6316  TIP3      H1            -18.4278933925       31.4609005587      -38.2311256262  TIP3      6124            0.0000000000
     40692      6316  TIP3      H2            -19.1118392024       30.2766005422      -37.5997642518  TIP3      6124            0.0000000000
     40693      6317  TIP3      OH2           -18.8724264768       28.9522102432      -36.2698355219  TIP3      6125            0.0000000000
     40694      6317  TIP3      H1            -19.6302745466       28.4176047906      -35.9346736155  TIP3      6125            0.0000000000
     40695      6317  TIP3      H2            -18.3006034706       28.9784953845      -35.4728631244  TIP3      6125            0.0000000000
     40696      6318  TIP3      OH2           -18.8775752960       31.8789972340      -31.2387507278  TIP3      6126            0.0000000000
     40697      6318  TIP3      H1            -18.5165948707       31.2013734752      -31.8393974113  TIP3      6126            0.0000000000
     40698      6318  TIP3      H2            -18.4186196567       32.6942534151      -31.5266264070  TIP3      6126            0.0000000000
     40699      6319  TIP3      OH2           -20.4184357197       34.6336446834      -29.0487023502  TIP3      6127            0.0000000000
     40700      6319  TIP3      H1            -21.1652259844       35.1473894101      -28.6807920591  TIP3      6127            0.0000000000
     40701      6319  TIP3      H2            -20.7590915788       34.4688916415      -29.9574251800  TIP3      6127            0.0000000000
     40702      6320  TIP3      OH2           -18.8286716993       28.5831381878      -40.1510679883  TIP3      6128            0.0000000000
     40703      6320  TIP3      H1            -19.4754583761       28.8140662066      -40.8268534986  TIP3      6128            0.0000000000
     40704      6320  TIP3      H2            -18.9380604150       29.3412713489      -39.5311476598  TIP3      6128            0.0000000000
     40705      6321  TIP3      OH2           -20.7298143508       26.0825542391      -41.4598002654  TIP3      6129            0.0000000000
     40706      6321  TIP3      H1            -19.9481348624       26.4886811469      -41.8760965054  TIP3      6129            0.0000000000
     40707      6321  TIP3      H2            -20.7004280625       25.2274088417      -41.9405799610  TIP3      6129            0.0000000000
     40708      6322  TIP3      OH2           -20.8997631498       27.4002697057      -35.7457091012  TIP3      6130            0.0000000000
     40709      6322  TIP3      H1            -21.0342345186       26.4723633644      -36.0380407164  TIP3      6130            0.0000000000
     40710      6322  TIP3      H2            -21.2283669140       27.4083690708      -34.8262430949  TIP3      6130            0.0000000000
     40711      6323  TIP3      OH2           -36.4159621623       30.0181820641      -32.1061662494  TIP3      6131            0.0000000000
     40712      6323  TIP3      H1            -36.2899592774       29.7014335677      -33.0321308657  TIP3      6131            0.0000000000
     40713      6323  TIP3      H2            -35.4801787211       29.9713326514      -31.8321331224  TIP3      6131            0.0000000000
     40714      6324  TIP3      OH2           -19.6743487061       29.1929458110      -25.9551137015  TIP3      6132            0.0000000000
     40715      6324  TIP3      H1            -18.9092309375       29.4460238274      -26.5099323245  TIP3      6132            0.0000000000
     40716      6324  TIP3      H2            -19.9884737757       30.0712395470      -25.7095383216  TIP3      6132            0.0000000000
     40717      6325  TIP3      OH2           -20.8227915287       23.6452840308      -42.5894815987  TIP3      6133            0.0000000000
     40718      6325  TIP3      H1            -20.2980249122       23.1872529284      -41.8828873112  TIP3      6133            0.0000000000
     40719      6325  TIP3      H2            -21.7496394613       23.5194203948      -42.3234420458  TIP3      6133            0.0000000000
     40720      6326  TIP3      OH2           -21.4012543598       25.2768740871      -37.2589981599  TIP3      6134            0.0000000000
     40721      6326  TIP3      H1            -21.1426490569       24.3628721188      -37.0053802446  TIP3      6134            0.0000000000
     40722      6326  TIP3      H2            -20.9428472386       25.3272893839      -38.1120914173  TIP3      6134            0.0000000000
     40723      6327  TIP3      OH2           -20.3840264354       26.1172963000      -31.9811103723  TIP3      6135            0.0000000000
     40724      6327  TIP3      H1            -19.4131230440       26.0823271423      -31.8429243312  TIP3      6135            0.0000000000
     40725      6327  TIP3      H2            -20.6693365221       25.9680442483      -31.0658636901  TIP3      6135            0.0000000000
     40726      6328  TIP3      OH2           -20.3304171855       26.5197733219      -29.1449815308  TIP3      6136            0.0000000000
     40727      6328  TIP3      H1            -21.2099986782       26.8103005957      -28.8199052787  TIP3      6136            0.0000000000
     40728      6328  TIP3      H2            -19.9497916463       27.3399137328      -29.5421389366  TIP3      6136            0.0000000000
     40729      6329  TIP3      OH2           -35.8529262013       25.0442286151      -25.5270182446  TIP3      6137            0.0000000000
     40730      6329  TIP3      H1            -34.9813982241       24.7568103311      -25.1608530844  TIP3      6137            0.0000000000
     40731      6329  TIP3      H2            -36.3525906729       24.2183235426      -25.6643895221  TIP3      6137            0.0000000000
     40732      6330  TIP3      OH2           -20.6830045656       22.6592034727      -37.3893873772  TIP3      6138            0.0000000000
     40733      6330  TIP3      H1            -20.2931832269       22.3638862588      -36.5394117576  TIP3      6138            0.0000000000
     40734      6330  TIP3      H2            -21.1711708578       21.8577734651      -37.6648541152  TIP3      6138            0.0000000000
     40735      6331  TIP3      OH2           -35.1661823643       23.0987477576      -32.6259820299  TIP3      6139            0.0000000000
     40736      6331  TIP3      H1            -34.5880421496       22.3093124321      -32.6294528978  TIP3      6139            0.0000000000
     40737      6331  TIP3      H2            -34.5528684390       23.7966935066      -32.3301598146  TIP3      6139            0.0000000000
     40738      6332  TIP3      OH2           -36.3208078590       27.4062599546      -30.9846615032  TIP3      6140            0.0000000000
     40739      6332  TIP3      H1            -35.4226717220       27.0470808064      -31.0734793826  TIP3      6140            0.0000000000
     40740      6332  TIP3      H2            -36.3533983246       28.0296150829      -31.7339826043  TIP3      6140            0.0000000000
     40741      6333  TIP3      OH2           -19.0435993103       22.8501407282      -25.6412045753  TIP3      6141            0.0000000000
     40742      6333  TIP3      H1            -19.9512388871       23.0268028390      -25.9701989944  TIP3      6141            0.0000000000
     40743      6333  TIP3      H2            -18.8946302060       22.0052951720      -26.0965120085  TIP3      6141            0.0000000000
     40744      6334  TIP3      OH2           -18.9751286702       22.6289959317      -40.9083566511  TIP3      6142            0.0000000000
     40745      6334  TIP3      H1            -18.3800204847       22.1360416068      -41.4998569139  TIP3      6142            0.0000000000
     40746      6334  TIP3      H2            -18.3353120766       23.1943405672      -40.4323122800  TIP3      6142            0.0000000000
     40747      6335  TIP3      OH2           -35.8958610390       22.9570329135      -37.8371989558  TIP3      6143            0.0000000000
     40748      6335  TIP3      H1            -36.8192149399       23.0433564786      -38.1090911717  TIP3      6143            0.0000000000
     40749      6335  TIP3      H2            -35.5158845480       23.7743274450      -38.2261723562  TIP3      6143            0.0000000000
     40750      6336  TIP3      OH2           -36.1800115498       20.7653406423      -29.3382483570  TIP3      6144            0.0000000000
     40751      6336  TIP3      H1            -36.7795096844       20.9334555405      -28.6050161884  TIP3      6144            0.0000000000
     40752      6336  TIP3      H2            -36.3515784859       21.5216009584      -29.9262801849  TIP3      6144            0.0000000000
     40753      6337  TIP3      OH2           -33.8078471887       34.7852656162      -25.5274367787  TIP3      6145            0.0000000000
     40754      6337  TIP3      H1            -34.7460300532       34.8108786708      -25.7743297795  TIP3      6145            0.0000000000
     40755      6337  TIP3      H2            -33.8065289668       34.1590275881      -24.7966341448  TIP3      6145            0.0000000000
     40756      6338  TIP3      OH2           -31.0864149707       35.7875236195      -29.1855103592  TIP3      6146            0.0000000000
     40757      6338  TIP3      H1            -31.9906011574       35.8052637872      -29.5875602836  TIP3      6146            0.0000000000
     40758      6338  TIP3      H2            -30.5048340610       35.8017924004      -29.9445041211  TIP3      6146            0.0000000000
     40759      6339  TIP3      OH2           -19.5830523560       20.4068040534      -27.4391170223  TIP3      6147            0.0000000000
     40760      6339  TIP3      H1            -20.2344416485       20.8000763987      -28.0334007536  TIP3      6147            0.0000000000
     40761      6339  TIP3      H2            -19.4575239730       19.5106831903      -27.8319169809  TIP3      6147            0.0000000000
     40762      6340  TIP3      OH2           -32.5702370515       35.5708309369      -34.0179653284  TIP3      6148            0.0000000000
     40763      6340  TIP3      H1            -32.5283675734       34.7542333630      -33.4916759162  TIP3      6148            0.0000000000
     40764      6340  TIP3      H2            -31.8053050730       36.0152898456      -33.6130678008  TIP3      6148            0.0000000000
     40765      6341  TIP3      OH2           -30.1831815743       35.7824438478      -32.2995658321  TIP3      6149            0.0000000000
     40766      6341  TIP3      H1            -30.3039087886       34.9262400359      -32.7599868545  TIP3      6149            0.0000000000
     40767      6341  TIP3      H2            -29.6140109056       35.5030004561      -31.5554515772  TIP3      6149            0.0000000000
     40768      6342  TIP3      OH2           -26.7965187052       21.7741717026      -33.5133427000  TIP3      6150            0.0000000000
     40769      6342  TIP3      H1            -27.6210575796       21.3439066747      -33.1850018500  TIP3      6150            0.0000000000
     40770      6342  TIP3      H2            -26.3022065864       21.0315184635      -33.8659606627  TIP3      6150            0.0000000000
     40771      6343  TIP3      OH2           -21.0207559588       20.2529006329      -33.3331052379  TIP3      6151            0.0000000000
     40772      6343  TIP3      H1            -20.4562811702       20.8513521312      -33.8723904637  TIP3      6151            0.0000000000
     40773      6343  TIP3      H2            -21.8983380046       20.3612049918      -33.7708038513  TIP3      6151            0.0000000000
     40774      6344  TIP3      OH2           -19.5527661281       21.5276570422      -35.1786032362  TIP3      6152            0.0000000000
     40775      6344  TIP3      H1            -19.0824124678       20.7890925548      -35.6334889829  TIP3      6152            0.0000000000
     40776      6344  TIP3      H2            -18.8012685582       22.1454879932      -34.9950672377  TIP3      6152            0.0000000000
     40777      6345  TIP3      OH2           -33.8184937316       20.6204317157      -35.6373317004  TIP3      6153            0.0000000000
     40778      6345  TIP3      H1            -34.4662591854       20.5952784543      -36.3648223387  TIP3      6153            0.0000000000
     40779      6345  TIP3      H2            -33.2976323927       19.8100183991      -35.8425269275  TIP3      6153            0.0000000000
     40780      6346  TIP3      OH2           -34.2091064123       20.6472498748      -39.3750315379  TIP3      6154            0.0000000000
     40781      6346  TIP3      H1            -34.2260099986       21.5583238302      -39.7141180610  TIP3      6154            0.0000000000
     40782      6346  TIP3      H2            -35.1788493065       20.5032100578      -39.2794760008  TIP3      6154            0.0000000000
     40783      6347  TIP3      OH2           -29.4679482378       20.1168699303      -35.7021824776  TIP3      6155            0.0000000000
     40784      6347  TIP3      H1            -28.6140658684       20.1973675619      -36.1497448318  TIP3      6155            0.0000000000
     40785      6347  TIP3      H2            -29.2658698749       20.3788250318      -34.7989579802  TIP3      6155            0.0000000000
     40786      6348  TIP3      OH2           -23.6306308048       20.7284488001      -34.3625105309  TIP3      6156            0.0000000000
     40787      6348  TIP3      H1            -24.0060899599       20.8983346844      -35.2347721128  TIP3      6156            0.0000000000
     40788      6348  TIP3      H2            -24.1747203981       19.9624735815      -34.0577116244  TIP3      6156            0.0000000000
     40789      6349  TIP3      OH2           -22.2232738446       20.4965233741      -38.4078323056  TIP3      6157            0.0000000000
     40790      6349  TIP3      H1            -22.8624206319       20.9226995468      -38.9936914389  TIP3      6157            0.0000000000
     40791      6349  TIP3      H2            -22.7176633113       19.6687243264      -38.1833918625  TIP3      6157            0.0000000000
     40792      6350  TIP3      OH2           -35.2934004185      -36.8482172530      -37.9498833228  TIP3      6158            0.0000000000
     40793      6350  TIP3      H1            -35.4537305715      -37.0889981673      -38.8765617136  TIP3      6158            0.0000000000
     40794      6350  TIP3      H2            -35.4919228379      -35.8961124447      -37.9887878406  TIP3      6158            0.0000000000
     40795      6351  TIP3      OH2           -34.0052776533       22.6227915007      -41.3322015770  TIP3      6159            0.0000000000
     40796      6351  TIP3      H1            -33.3102965238       22.0521135729      -41.6874067091  TIP3      6159            0.0000000000
     40797      6351  TIP3      H2            -33.5082129678       23.0819785831      -40.6416006408  TIP3      6159            0.0000000000
     40798      6352  TIP3      OH2           -28.5129963164       22.9919855182      -38.9892205083  TIP3      6160            0.0000000000
     40799      6352  TIP3      H1            -28.1621837427       22.3616050863      -38.3330938559  TIP3      6160            0.0000000000
     40800      6352  TIP3      H2            -28.1818235990       23.8249578683      -38.5852687749  TIP3      6160            0.0000000000
     40801      6353  TIP3      OH2           -34.3836948760       21.2200012933      -26.1683561203  TIP3      6161            0.0000000000
     40802      6353  TIP3      H1            -34.8155137603       20.3517771775      -26.0447027527  TIP3      6161            0.0000000000
     40803      6353  TIP3      H2            -33.5916704709       21.1205924108      -25.6141237700  TIP3      6161            0.0000000000
     40804      6354  TIP3      OH2           -32.3071676671       20.5920504389      -24.2467562943  TIP3      6162            0.0000000000
     40805      6354  TIP3      H1            -31.5297751516       20.3611583818      -24.7822306881  TIP3      6162            0.0000000000
     40806      6354  TIP3      H2            -32.5200607917       19.7431553843      -23.7996308756  TIP3      6162            0.0000000000
     40807      6355  TIP3      OH2           -23.6762237363       19.5359950776      -23.7264841196  TIP3      6163            0.0000000000
     40808      6355  TIP3      H1            -23.3956223016       18.6639521353      -23.3907639929  TIP3      6163            0.0000000000
     40809      6355  TIP3      H2            -22.8466832433       19.7275266850      -24.2184672205  TIP3      6163            0.0000000000
     40810      6356  TIP3      OH2           -20.6718605483       36.1087759254      -25.8371310583  TIP3      6164            0.0000000000
     40811      6356  TIP3      H1            -21.5311278620       35.9752720193      -26.2895849062  TIP3      6164            0.0000000000
     40812      6356  TIP3      H2            -20.3009702296       36.8014783841      -26.4199393084  TIP3      6164            0.0000000000
     40813      6357  TIP3      OH2            -5.9619790520       29.9762506546      -35.7389577590  TIP3      6165            0.0000000000
     40814      6357  TIP3      H1             -6.1751841983       30.9310304682      -35.8247718156  TIP3      6165            0.0000000000
     40815      6357  TIP3      H2             -6.6863058018       29.5655307021      -36.2376907769  TIP3      6165            0.0000000000
     40816      6358  TIP3      OH2            -7.0396865498       28.9385751123      -32.0479034791  TIP3      6166            0.0000000000
     40817      6358  TIP3      H1             -6.9657045603       28.4003604513      -31.2238708635  TIP3      6166            0.0000000000
     40818      6358  TIP3      H2             -7.6387938097       28.4392306772      -32.6214054356  TIP3      6166            0.0000000000
     40819      6359  TIP3      OH2           -14.7896023911       28.8544828153      -30.3839290391  TIP3      6167            0.0000000000
     40820      6359  TIP3      H1            -14.9437655715       27.9792244794      -29.9941239646  TIP3      6167            0.0000000000
     40821      6359  TIP3      H2            -13.8781622618       28.7221203513      -30.7118140082  TIP3      6167            0.0000000000
     40822      6360  TIP3      OH2            -3.7141273278       31.8115826720      -33.7009020426  TIP3      6168            0.0000000000
     40823      6360  TIP3      H1             -3.8031916367       31.1928815080      -32.9515675769  TIP3      6168            0.0000000000
     40824      6360  TIP3      H2             -3.2408433635       32.5506459011      -33.3053376650  TIP3      6168            0.0000000000
     40825      6361  TIP3      OH2           -13.4247128026       33.1761413692      -32.0161173885  TIP3      6169            0.0000000000
     40826      6361  TIP3      H1            -13.7512544433       32.3145431748      -32.3388004049  TIP3      6169            0.0000000000
     40827      6361  TIP3      H2            -12.4658325606       33.0610507907      -32.1632501055  TIP3      6169            0.0000000000
     40828      6362  TIP3      OH2           -17.0352744307       26.6762430145      -36.9356539746  TIP3      6170            0.0000000000
     40829      6362  TIP3      H1            -17.2728414990       27.5610217442      -36.6187930020  TIP3      6170            0.0000000000
     40830      6362  TIP3      H2            -17.6899545699       26.5234716898      -37.6417738154  TIP3      6170            0.0000000000
     40831      6363  TIP3      OH2           -16.9827230486       28.7996244192      -34.3452974167  TIP3      6171            0.0000000000
     40832      6363  TIP3      H1            -16.6761815935       27.8746101924      -34.1761594223  TIP3      6171            0.0000000000
     40833      6363  TIP3      H2            -16.1512794505       29.3092508187      -34.3271568335  TIP3      6171            0.0000000000
     40834      6364  TIP3      OH2            -8.9799183382       31.3497063566      -31.2217774321  TIP3      6172            0.0000000000
     40835      6364  TIP3      H1             -8.5379351370       31.0539531186      -32.0271455182  TIP3      6172            0.0000000000
     40836      6364  TIP3      H2             -8.1946697586       31.6513108280      -30.7218766620  TIP3      6172            0.0000000000
     40837      6365  TIP3      OH2            -0.4156940221       23.0479900705      -31.2012936910  TIP3      6173            0.0000000000
     40838      6365  TIP3      H1             -0.3347844202       23.6130688312      -30.4009924852  TIP3      6173            0.0000000000
     40839      6365  TIP3      H2              0.4746994017       23.2032167778      -31.5635185750  TIP3      6173            0.0000000000
     40840      6366  TIP3      OH2            -5.3143280157       25.9982745892      -31.2926042253  TIP3      6174            0.0000000000
     40841      6366  TIP3      H1             -5.2581413328       25.0377595153      -31.1093666163  TIP3      6174            0.0000000000
     40842      6366  TIP3      H2             -5.4260880777       25.9375665844      -32.2682536768  TIP3      6174            0.0000000000
     40843      6367  TIP3      OH2           -12.4486979464       23.8049968919      -34.5079558153  TIP3      6175            0.0000000000
     40844      6367  TIP3      H1            -12.3176957275       24.6386844218      -35.0139267958  TIP3      6175            0.0000000000
     40845      6367  TIP3      H2            -12.9177000624       23.2916550736      -35.1917809006  TIP3      6175            0.0000000000
     40846      6368  TIP3      OH2            -4.8762397913       24.3287890628      -35.7133687128  TIP3      6176            0.0000000000
     40847      6368  TIP3      H1             -4.2845336573       23.8784598997      -35.0581612791  TIP3      6176            0.0000000000
     40848      6368  TIP3      H2             -4.2569697703       24.9361007676      -36.1606195139  TIP3      6176            0.0000000000
     40849      6369  TIP3      OH2           -15.9413854940       26.5027154898      -33.4083048334  TIP3      6177            0.0000000000
     40850      6369  TIP3      H1            -15.3827746294       25.9710862094      -32.8109505363  TIP3      6177            0.0000000000
     40851      6369  TIP3      H2            -15.6526130104       26.1077773714      -34.2540219969  TIP3      6177            0.0000000000
     40852      6370  TIP3      OH2           -11.1163489039       28.0147084441      -34.0616617737  TIP3      6178            0.0000000000
     40853      6370  TIP3      H1            -10.2612400423       27.6274886932      -33.7688300677  TIP3      6178            0.0000000000
     40854      6370  TIP3      H2            -11.3675935259       27.3342417774      -34.7134143947  TIP3      6178            0.0000000000
     40855      6371  TIP3      OH2            -0.1582893947       24.5300331477      -29.0037358495  TIP3      6179            0.0000000000
     40856      6371  TIP3      H1             -0.4546149015       25.4366624314      -29.2500496776  TIP3      6179            0.0000000000
     40857      6371  TIP3      H2              0.2796507349       24.6974237923      -28.1617136875  TIP3      6179            0.0000000000
     40858      6372  TIP3      OH2           -13.2315212983       23.0748104959      -30.1309038719  TIP3      6180            0.0000000000
     40859      6372  TIP3      H1            -13.6772559866       23.5659795500      -30.8478658895  TIP3      6180            0.0000000000
     40860      6372  TIP3      H2            -13.9176667356       23.1230861801      -29.4342994876  TIP3      6180            0.0000000000
     40861      6373  TIP3      OH2            -6.5563707555       32.4176232927      -36.7525736298  TIP3      6181            0.0000000000
     40862      6373  TIP3      H1             -6.8671156084       32.2463485658      -37.6613701390  TIP3      6181            0.0000000000
     40863      6373  TIP3      H2             -6.6919484474       33.3663929496      -36.6688321055  TIP3      6181            0.0000000000
     40864      6374  TIP3      OH2           -11.3113700576       30.5609783074      -30.2295173047  TIP3      6182            0.0000000000
     40865      6374  TIP3      H1            -11.8608203592       31.2852943544      -29.8625009254  TIP3      6182            0.0000000000
     40866      6374  TIP3      H2            -10.6306081666       31.0654635818      -30.7376831611  TIP3      6182            0.0000000000
     40867      6375  TIP3      OH2            -2.9592990536       23.4924017027      -34.1429226664  TIP3      6183            0.0000000000
     40868      6375  TIP3      H1             -3.1256098588       23.0319373998      -33.3117695162  TIP3      6183            0.0000000000
     40869      6375  TIP3      H2             -2.0920828793       23.8742781146      -33.9947405556  TIP3      6183            0.0000000000
     40870      6376  TIP3      OH2           -13.9145955285       24.6802483505      -32.4317711992  TIP3      6184            0.0000000000
     40871      6376  TIP3      H1            -13.2883561722       25.3152706026      -32.0383177769  TIP3      6184            0.0000000000
     40872      6376  TIP3      H2            -13.3716644220       24.3766230433      -33.1996106493  TIP3      6184            0.0000000000
     40873      6377  TIP3      OH2           -12.7006716788       32.7892791347      -29.2206817856  TIP3      6185            0.0000000000
     40874      6377  TIP3      H1            -12.8262182699       33.6729499400      -29.6034143122  TIP3      6185            0.0000000000
     40875      6377  TIP3      H2            -13.5403873070       32.3738384632      -29.4751433665  TIP3      6185            0.0000000000
     40876      6378  TIP3      OH2           -16.6389437374       32.6208955172      -38.1135426880  TIP3      6186            0.0000000000
     40877      6378  TIP3      H1            -16.7601905104       32.8352387425      -39.0602199954  TIP3      6186            0.0000000000
     40878      6378  TIP3      H2            -16.2993397128       33.4376731441      -37.7235365504  TIP3      6186            0.0000000000
     40879      6379  TIP3      OH2            -2.9149830946       34.0506327809      -31.5716357344  TIP3      6187            0.0000000000
     40880      6379  TIP3      H1             -3.8437985842       34.1856180750      -31.2850134291  TIP3      6187            0.0000000000
     40881      6379  TIP3      H2             -2.8102500452       34.8186258352      -32.1596802277  TIP3      6187            0.0000000000
     40882      6380  TIP3      OH2            -3.1855523044       22.3496108343      -30.4355854463  TIP3      6188            0.0000000000
     40883      6380  TIP3      H1             -3.9561590101       22.6529839708      -30.9653175077  TIP3      6188            0.0000000000
     40884      6380  TIP3      H2             -2.4406933641       22.7270052698      -30.9389361110  TIP3      6188            0.0000000000
     40885      6381  TIP3      OH2           -10.0312499211       20.4152270906      -32.7945426169  TIP3      6189            0.0000000000
     40886      6381  TIP3      H1            -10.2434064627       19.4910893655      -32.9896821056  TIP3      6189            0.0000000000
     40887      6381  TIP3      H2            -10.9331235401       20.7843174095      -32.6155717913  TIP3      6189            0.0000000000
     40888      6382  TIP3      OH2            -4.3730029995       35.5101064152      -35.0674821687  TIP3      6190            0.0000000000
     40889      6382  TIP3      H1             -4.1800431167       34.7009400910      -35.5950447000  TIP3      6190            0.0000000000
     40890      6382  TIP3      H2             -3.4972143206       35.9184286810      -35.0575955795  TIP3      6190            0.0000000000
     40891      6383  TIP3      OH2            -3.6710350168       33.2176368363      -36.3838506369  TIP3      6191            0.0000000000
     40892      6383  TIP3      H1             -3.5925696624       32.6934161384      -37.1975606398  TIP3      6191            0.0000000000
     40893      6383  TIP3      H2             -3.7707513400       32.5240908126      -35.7090453792  TIP3      6191            0.0000000000
     40894      6384  TIP3      OH2            -2.1835613058       32.5257573919      -27.8972758736  TIP3      6192            0.0000000000
     40895      6384  TIP3      H1             -2.1011654690       31.8002422819      -28.5611464968  TIP3      6192            0.0000000000
     40896      6384  TIP3      H2             -1.7186120239       33.2445704515      -28.3817992873  TIP3      6192            0.0000000000
     40897      6385  TIP3      OH2            -7.4664630255       29.1014277642      -38.1620747796  TIP3      6193            0.0000000000
     40898      6385  TIP3      H1             -8.0855724032       29.8385863374      -38.3586009872  TIP3      6193            0.0000000000
     40899      6385  TIP3      H2             -6.6339863839       29.4327676592      -38.5707087040  TIP3      6193            0.0000000000
     40900      6386  TIP3      OH2            -7.4425665091       28.2648650850      -41.0592453897  TIP3      6194            0.0000000000
     40901      6386  TIP3      H1             -6.8917567356       28.4729852265      -40.2773295567  TIP3      6194            0.0000000000
     40902      6386  TIP3      H2             -6.9224103065       27.5644981307      -41.4820109391  TIP3      6194            0.0000000000
     40903      6387  TIP3      OH2             0.0927798048       28.8495657600      -30.1328402431  TIP3      6195            0.0000000000
     40904      6387  TIP3      H1             -0.7247687138       29.3839179895      -30.0664846924  TIP3      6195            0.0000000000
     40905      6387  TIP3      H2              0.6035780075       29.3763416634      -30.7820541813  TIP3      6195            0.0000000000
     40906      6388  TIP3      OH2            -3.7128187347       29.0457064572      -37.0339889310  TIP3      6196            0.0000000000
     40907      6388  TIP3      H1             -4.3467614994       29.4322465054      -36.3865962091  TIP3      6196            0.0000000000
     40908      6388  TIP3      H2             -3.0795778800       28.5458177633      -36.4710206229  TIP3      6196            0.0000000000
     40909      6389  TIP3      OH2            -3.8138834729       27.3851511275      -27.7158298843  TIP3      6197            0.0000000000
     40910      6389  TIP3      H1             -4.0456646058       28.0960797303      -27.0806199689  TIP3      6197            0.0000000000
     40911      6389  TIP3      H2             -4.2900633816       27.7043336969      -28.4993735909  TIP3      6197            0.0000000000
     40912      6390  TIP3      OH2           -12.2732531828       29.9067871059      -35.4740043569  TIP3      6198            0.0000000000
     40913      6390  TIP3      H1            -12.3834036051       29.6097451137      -36.3954177604  TIP3      6198            0.0000000000
     40914      6390  TIP3      H2            -11.7657066545       29.1819008021      -35.0453291243  TIP3      6198            0.0000000000
     40915      6391  TIP3      OH2           -10.8666480360       33.2828910095      -32.7858312109  TIP3      6199            0.0000000000
     40916      6391  TIP3      H1            -10.6932474902       33.2906629547      -33.7437112299  TIP3      6199            0.0000000000
     40917      6391  TIP3      H2            -10.0241329452       33.0118715808      -32.3889739235  TIP3      6199            0.0000000000
     40918      6392  TIP3      OH2           -12.2913017928       28.5423213326      -31.6626825183  TIP3      6200            0.0000000000
     40919      6392  TIP3      H1            -11.8823692145       28.5215478531      -32.5586523755  TIP3      6200            0.0000000000
     40920      6392  TIP3      H2            -11.7258858710       29.2010055476      -31.1868499270  TIP3      6200            0.0000000000
     40921      6393  TIP3      OH2            -5.3712854988       34.6973167216      -30.5421781269  TIP3      6201            0.0000000000
     40922      6393  TIP3      H1             -6.0732690806       35.2206405078      -30.9404802346  TIP3      6201            0.0000000000
     40923      6393  TIP3      H2             -5.7195962435       33.7874698534      -30.5782720008  TIP3      6201            0.0000000000
     40924      6394  TIP3      OH2           -10.7371944358       33.3732821797      -27.1569863181  TIP3      6202            0.0000000000
     40925      6394  TIP3      H1            -11.3762213355       34.0490797893      -26.8887141076  TIP3      6202            0.0000000000
     40926      6394  TIP3      H2            -10.9830583012       33.2715072405      -28.0948640452  TIP3      6202            0.0000000000
     40927      6395  TIP3      OH2            -5.1159727094       29.0737840684      -39.3262788885  TIP3      6203            0.0000000000
     40928      6395  TIP3      H1             -4.5362955325       29.1308095663      -38.5335127936  TIP3      6203            0.0000000000
     40929      6395  TIP3      H2             -4.5435799422       29.4179145312      -40.0474203073  TIP3      6203            0.0000000000
     40930      6396  TIP3      OH2           -14.0482837660       29.4271935041      -27.4838807010  TIP3      6204            0.0000000000
     40931      6396  TIP3      H1            -14.4098990883       29.5544463547      -26.5825234337  TIP3      6204            0.0000000000
     40932      6396  TIP3      H2            -14.8353850919       29.3663803493      -28.0470998959  TIP3      6204            0.0000000000
     40933      6397  TIP3      OH2            -7.5030201796       35.1378403382      -35.3318882712  TIP3      6205            0.0000000000
     40934      6397  TIP3      H1             -6.5352279411       35.1176976721      -35.3959945394  TIP3      6205            0.0000000000
     40935      6397  TIP3      H2             -7.8047485187       35.4531128355      -36.1921360523  TIP3      6205            0.0000000000
     40936      6398  TIP3      OH2           -12.6940231509       35.1253654625      -26.2138301806  TIP3      6206            0.0000000000
     40937      6398  TIP3      H1            -12.8674969877       35.5524913528      -27.0898543064  TIP3      6206            0.0000000000
     40938      6398  TIP3      H2            -13.5687176143       35.2504211869      -25.7644659191  TIP3      6206            0.0000000000
     40939      6399  TIP3      OH2            -1.0123531107       20.1360606766      -39.2875085649  TIP3      6207            0.0000000000
     40940      6399  TIP3      H1             -1.9719349656       20.2485346105      -39.1539518104  TIP3      6207            0.0000000000
     40941      6399  TIP3      H2             -0.7527806083       21.0162371601      -39.6142292875  TIP3      6207            0.0000000000
     40942      6400  TIP3      OH2           -13.3971800632       28.7661368809      -38.3495279660  TIP3      6208            0.0000000000
     40943      6400  TIP3      H1            -13.9589239805       29.5525120694      -38.5437807645  TIP3      6208            0.0000000000
     40944      6400  TIP3      H2            -14.0252198554       28.1447056715      -37.9663782944  TIP3      6208            0.0000000000
     40945      6401  TIP3      OH2            -0.1580247991       34.4139374755      -41.1598029775  TIP3      6209            0.0000000000
     40946      6401  TIP3      H1              0.1950212259       35.1706696882      -41.6440383676  TIP3      6209            0.0000000000
     40947      6401  TIP3      H2              0.6149323603       33.8362264003      -41.0204721918  TIP3      6209            0.0000000000
     40948      6402  TIP3      OH2           -17.0682252206       31.5464603191      -29.2461573983  TIP3      6210            0.0000000000
     40949      6402  TIP3      H1            -17.8017112498       31.5836512880      -29.8957120406  TIP3      6210            0.0000000000
     40950      6402  TIP3      H2            -16.7726472102       30.6282098195      -29.3877872624  TIP3      6210            0.0000000000
     40951      6403  TIP3      OH2           -17.3264839326       34.0112461269      -32.1042027677  TIP3      6211            0.0000000000
     40952      6403  TIP3      H1            -16.5090548070       33.5287441716      -32.2866235584  TIP3      6211            0.0000000000
     40953      6403  TIP3      H2            -17.0597661041       34.5540250721      -31.3384689341  TIP3      6211            0.0000000000
     40954      6404  TIP3      OH2             0.4676436051       34.9930024739      -26.2094081693  TIP3      6212            0.0000000000
     40955      6404  TIP3      H1              0.6782299982       34.1358208745      -26.6191796400  TIP3      6212            0.0000000000
     40956      6404  TIP3      H2             -0.4265713086       34.8013229360      -25.8610088483  TIP3      6212            0.0000000000
     40957      6405  TIP3      OH2            -8.2003717772       34.6547309505      -27.5866739822  TIP3      6213            0.0000000000
     40958      6405  TIP3      H1             -8.3706398374       35.6134908704      -27.5341049499  TIP3      6213            0.0000000000
     40959      6405  TIP3      H2             -9.0516274188       34.2555659277      -27.3142737590  TIP3      6213            0.0000000000
     40960      6406  TIP3      OH2            -2.5337379555       25.9729131369      -25.7086558378  TIP3      6214            0.0000000000
     40961      6406  TIP3      H1             -3.0362921832       26.4405642176      -26.4085453482  TIP3      6214            0.0000000000
     40962      6406  TIP3      H2             -2.3346732015       25.1192614083      -26.1514801353  TIP3      6214            0.0000000000
     40963      6407  TIP3      OH2           -15.6229971373       32.8514188651      -27.4796278592  TIP3      6215            0.0000000000
     40964      6407  TIP3      H1            -16.4675912214       32.7508734547      -26.9767600382  TIP3      6215            0.0000000000
     40965      6407  TIP3      H2            -15.8885418745       32.3204834904      -28.2634597534  TIP3      6215            0.0000000000
     40966      6408  TIP3      OH2           -12.3872982149       21.3452298525      -32.0204497484  TIP3      6216            0.0000000000
     40967      6408  TIP3      H1            -13.3538702890       21.3001639424      -32.1805376207  TIP3      6216            0.0000000000
     40968      6408  TIP3      H2            -12.3632223185       21.9886883447      -31.2867767661  TIP3      6216            0.0000000000
     40969      6409  TIP3      OH2            -7.4839881748       20.8321960223      -28.6043657524  TIP3      6217            0.0000000000
     40970      6409  TIP3      H1             -7.1683313443       20.3606740370      -27.8110991544  TIP3      6217            0.0000000000
     40971      6409  TIP3      H2             -8.4559953678       20.8891804525      -28.4862680872  TIP3      6217            0.0000000000
     40972      6410  TIP3      OH2            -4.8167549844       24.8211813022      -27.5308782001  TIP3      6218            0.0000000000
     40973      6410  TIP3      H1             -5.2872043371       24.5891298473      -26.6965303267  TIP3      6218            0.0000000000
     40974      6410  TIP3      H2             -4.9165430047       25.7881930268      -27.5728171162  TIP3      6218            0.0000000000
     40975      6411  TIP3      OH2            -3.7334855505       29.9124596486      -41.4295240271  TIP3      6219            0.0000000000
     40976      6411  TIP3      H1             -3.7856310347       30.2678912164      -42.3250027226  TIP3      6219            0.0000000000
     40977      6411  TIP3      H2             -2.8580297297       30.2719097997      -41.1983649924  TIP3      6219            0.0000000000
     40978      6412  TIP3      OH2            -7.8643670449       23.9382457972      -41.1026681718  TIP3      6220            0.0000000000
     40979      6412  TIP3      H1             -8.3647232771       23.7922210077      -40.2710115262  TIP3      6220            0.0000000000
     40980      6412  TIP3      H2             -8.2644992865       23.2650437948      -41.6704937327  TIP3      6220            0.0000000000
     40981      6413  TIP3      OH2           -12.0651894532       25.9658724784      -30.7623068341  TIP3      6221            0.0000000000
     40982      6413  TIP3      H1            -12.7412749736       26.1636845447      -30.0817109926  TIP3      6221            0.0000000000
     40983      6413  TIP3      H2            -11.9996038421       26.8565406573      -31.1482294900  TIP3      6221            0.0000000000
     40984      6414  TIP3      OH2           -12.2411283117       26.0022367923      -35.9298208131  TIP3      6222            0.0000000000
     40985      6414  TIP3      H1            -13.2057906216       25.9167257410      -36.0534969383  TIP3      6222            0.0000000000
     40986      6414  TIP3      H2            -11.8783006245       25.8480581606      -36.8303421036  TIP3      6222            0.0000000000
     40987      6415  TIP3      OH2            -6.6662920688       26.6296005878      -37.3504699239  TIP3      6223            0.0000000000
     40988      6415  TIP3      H1             -6.9038521265       27.5260819398      -37.6836653501  TIP3      6223            0.0000000000
     40989      6415  TIP3      H2             -6.0350876092       26.3638190099      -38.0440862075  TIP3      6223            0.0000000000
     40990      6416  TIP3      OH2            -7.7614647786       27.3530637894      -25.8952945663  TIP3      6224            0.0000000000
     40991      6416  TIP3      H1             -8.2507709426       26.5671536747      -25.5784274154  TIP3      6224            0.0000000000
     40992      6416  TIP3      H2             -7.2014227786       27.5126494740      -25.1076126963  TIP3      6224            0.0000000000
     40993      6417  TIP3      OH2            -5.7868187689       26.4459686703      -33.9657602390  TIP3      6225            0.0000000000
     40994      6417  TIP3      H1             -5.7865052359       27.2874166247      -34.4441577721  TIP3      6225            0.0000000000
     40995      6417  TIP3      H2             -5.8062385734       25.8068901106      -34.7002984677  TIP3      6225            0.0000000000
     40996      6418  TIP3      OH2           -14.7387666569       26.0824887073      -29.5127551425  TIP3      6226            0.0000000000
     40997      6418  TIP3      H1            -14.1864856746       26.4738557666      -28.8036939732  TIP3      6226            0.0000000000
     40998      6418  TIP3      H2            -14.9788470397       25.2037624048      -29.1555705704  TIP3      6226            0.0000000000
     40999      6419  TIP3      OH2           -11.2606811650       24.0261842861      -41.7507703552  TIP3      6227            0.0000000000
     41000      6419  TIP3      H1            -11.4608667329       23.6501375031      -40.8733536713  TIP3      6227            0.0000000000
     41001      6419  TIP3      H2            -11.5304170678       24.9582999129      -41.6470081939  TIP3      6227            0.0000000000
     41002      6420  TIP3      OH2           -17.5846048813       23.3398830747      -34.7523608918  TIP3      6228            0.0000000000
     41003      6420  TIP3      H1            -16.8185010957       23.3920925162      -34.1643346904  TIP3      6228            0.0000000000
     41004      6420  TIP3      H2            -17.3314174124       23.8955286487      -35.5074805120  TIP3      6228            0.0000000000
     41005      6421  TIP3      OH2           -16.8819348035       24.1229436886      -39.8654909536  TIP3      6229            0.0000000000
     41006      6421  TIP3      H1            -16.3123146253       24.5360117929      -40.5467712623  TIP3      6229            0.0000000000
     41007      6421  TIP3      H2            -17.3851756587       24.9213691935      -39.6215704845  TIP3      6229            0.0000000000
     41008      6422  TIP3      OH2            -6.6884827986       27.7262632332      -29.6855090208  TIP3      6230            0.0000000000
     41009      6422  TIP3      H1             -6.0844446393       27.1219477697      -30.1734488229  TIP3      6230            0.0000000000
     41010      6422  TIP3      H2             -7.1703640444       27.1216228066      -29.0840464644  TIP3      6230            0.0000000000
     41011      6423  TIP3      OH2            -9.2412133036       23.8499416855      -34.7339921952  TIP3      6231            0.0000000000
     41012      6423  TIP3      H1            -10.1479344922       23.4986231357      -34.7626475844  TIP3      6231            0.0000000000
     41013      6423  TIP3      H2             -8.8427740145       23.3501534054      -34.0080986633  TIP3      6231            0.0000000000
     41014      6424  TIP3      OH2           -14.9483292866       25.3229233802      -35.8424822849  TIP3      6232            0.0000000000
     41015      6424  TIP3      H1            -15.6741173543       25.6636582008      -36.4206556707  TIP3      6232            0.0000000000
     41016      6424  TIP3      H2            -14.6846437605       24.4803630383      -36.2807447206  TIP3      6232            0.0000000000
     41017      6425  TIP3      OH2           -11.4811414807       25.5914366553      -38.5457963396  TIP3      6233            0.0000000000
     41018      6425  TIP3      H1            -10.5059300874       25.5140734184      -38.4581547373  TIP3      6233            0.0000000000
     41019      6425  TIP3      H2            -11.6452429311       26.1226324768      -39.3602695194  TIP3      6233            0.0000000000
     41020      6426  TIP3      OH2            -5.3120001978       23.1966656600      -31.7722211924  TIP3      6234            0.0000000000
     41021      6426  TIP3      H1             -5.8413354098       23.0334614777      -30.9546474320  TIP3      6234            0.0000000000
     41022      6426  TIP3      H2             -5.7843111073       22.6482360128      -32.4435221980  TIP3      6234            0.0000000000
     41023      6427  TIP3      OH2           -12.1389814995       26.5070563653      -41.0086048881  TIP3      6235            0.0000000000
     41024      6427  TIP3      H1            -12.8414342918       26.6053660196      -41.6774026108  TIP3      6235            0.0000000000
     41025      6427  TIP3      H2            -11.4203399813       27.0434655908      -41.4008955633  TIP3      6235            0.0000000000
     41026      6428  TIP3      OH2           -14.6407028727       30.5402590432      -25.1495799888  TIP3      6236            0.0000000000
     41027      6428  TIP3      H1            -13.9409305967       30.6108080737      -24.4554812828  TIP3      6236            0.0000000000
     41028      6428  TIP3      H2            -15.4049474366       30.9180173589      -24.6717873208  TIP3      6236            0.0000000000
     41029      6429  TIP3      OH2            -8.8932729751       26.5798231822      -33.4045094249  TIP3      6237            0.0000000000
     41030      6429  TIP3      H1             -7.9576695402       26.3404038418      -33.5000719025  TIP3      6237            0.0000000000
     41031      6429  TIP3      H2             -9.2688235383       25.7729203205      -32.9958687101  TIP3      6237            0.0000000000
     41032      6430  TIP3      OH2           -13.9310899069       22.8815759293      -36.5473113316  TIP3      6238            0.0000000000
     41033      6430  TIP3      H1            -14.4314705934       22.1930733408      -36.0454476686  TIP3      6238            0.0000000000
     41034      6430  TIP3      H2            -13.5291000991       22.3609738943      -37.2584652373  TIP3      6238            0.0000000000
     41035      6431  TIP3      OH2            -9.6519521110       24.7375535072      -30.6628141337  TIP3      6239            0.0000000000
     41036      6431  TIP3      H1            -10.4801195421       25.2489659760      -30.7488923481  TIP3      6239            0.0000000000
     41037      6431  TIP3      H2             -9.1264380204       25.3062980848      -30.0798199360  TIP3      6239            0.0000000000
     41038      6432  TIP3      OH2            -9.1303072517       31.1051442121      -38.5837178994  TIP3      6240            0.0000000000
     41039      6432  TIP3      H1             -9.8604310741       30.5727059100      -38.9779446829  TIP3      6240            0.0000000000
     41040      6432  TIP3      H2             -9.5451765837       31.4010441756      -37.7311733999  TIP3      6240            0.0000000000
     41041      6433  TIP3      OH2            -1.7865901371       30.7751455377      -29.8314204571  TIP3      6241            0.0000000000
     41042      6433  TIP3      H1             -1.2505399843       31.4089618225      -30.3764902350  TIP3      6241            0.0000000000
     41043      6433  TIP3      H2             -2.4203561319       30.4678779322      -30.5000196371  TIP3      6241            0.0000000000
     41044      6434  TIP3      OH2            -5.2005154816       24.1502834217      -40.7335731592  TIP3      6242            0.0000000000
     41045      6434  TIP3      H1             -6.1455353093       24.1392860815      -40.9895680118  TIP3      6242            0.0000000000
     41046      6434  TIP3      H2             -5.1104904623       25.0220806087      -40.2950814978  TIP3      6242            0.0000000000
     41047      6435  TIP3      OH2            -8.1893265546       31.5025538498      -27.7758214933  TIP3      6243            0.0000000000
     41048      6435  TIP3      H1             -8.1557348119       30.8088721176      -27.1120893172  TIP3      6243            0.0000000000
     41049      6435  TIP3      H2             -7.9605550342       32.2837479718      -27.2572908230  TIP3      6243            0.0000000000
     41050      6436  TIP3      OH2            -4.6779869912       26.3135364303      -39.1656726890  TIP3      6244            0.0000000000
     41051      6436  TIP3      H1             -4.0515180043       26.0126467200      -38.4742487901  TIP3      6244            0.0000000000
     41052      6436  TIP3      H2             -4.2956542920       27.1584326420      -39.4397683425  TIP3      6244            0.0000000000
     41053      6437  TIP3      OH2           -13.8875889378       30.6253253688      -33.2469580105  TIP3      6245            0.0000000000
     41054      6437  TIP3      H1            -13.3853732001       30.6791145047      -34.0843149984  TIP3      6245            0.0000000000
     41055      6437  TIP3      H2            -13.4333194394       29.9030521456      -32.7789284252  TIP3      6245            0.0000000000
     41056      6438  TIP3      OH2            -7.1063597621       32.6057029625      -39.5499911172  TIP3      6246            0.0000000000
     41057      6438  TIP3      H1             -7.5883751239       33.4551951338      -39.5043356094  TIP3      6246            0.0000000000
     41058      6438  TIP3      H2             -7.8230092419       31.9783180109      -39.3181396854  TIP3      6246            0.0000000000
     41059      6439  TIP3      OH2           -17.1806536920       29.0749475246      -27.7476809478  TIP3      6247            0.0000000000
     41060      6439  TIP3      H1            -17.0144135016       28.4423073521      -27.0269846870  TIP3      6247            0.0000000000
     41061      6439  TIP3      H2            -17.5354754216       28.5130651556      -28.4616849587  TIP3      6247            0.0000000000
     41062      6440  TIP3      OH2           -10.3845036663       28.5699587999      -26.0003872536  TIP3      6248            0.0000000000
     41063      6440  TIP3      H1            -10.1370333519       28.5486070119      -26.9531218381  TIP3      6248            0.0000000000
     41064      6440  TIP3      H2             -9.5265687683       28.4177587608      -25.5647686312  TIP3      6248            0.0000000000
     41065      6441  TIP3      OH2            -5.5434180802       34.8168426612      -27.1349919584  TIP3      6249            0.0000000000
     41066      6441  TIP3      H1             -6.4693926911       34.7439746620      -27.4603802898  TIP3      6249            0.0000000000
     41067      6441  TIP3      H2             -5.5625827393       34.2363401006      -26.3505665563  TIP3      6249            0.0000000000
     41068      6442  TIP3      OH2             0.0579982011       26.0391356514      -39.0847642287  TIP3      6250            0.0000000000
     41069      6442  TIP3      H1             -0.5409163480       25.9234697079      -39.8478900872  TIP3      6250            0.0000000000
     41070      6442  TIP3      H2              0.3222740675       26.9655869583      -39.2816136602  TIP3      6250            0.0000000000
     41071      6443  TIP3      OH2             0.1799457039       32.0434503004      -26.5370431812  TIP3      6251            0.0000000000
     41072      6443  TIP3      H1             -0.7352926510       32.3029417361      -26.7619023482  TIP3      6251            0.0000000000
     41073      6443  TIP3      H2              0.6057858938       31.9780091380      -27.4248357473  TIP3      6251            0.0000000000
     41074      6444  TIP3      OH2            -1.1304484376       34.2322253879      -38.5474577005  TIP3      6252            0.0000000000
     41075      6444  TIP3      H1             -1.7886182613       33.5696894391      -38.7726197879  TIP3      6252            0.0000000000
     41076      6444  TIP3      H2             -0.9555047754       34.6743942177      -39.3970431503  TIP3      6252            0.0000000000
     41077      6445  TIP3      OH2            -3.9983016906       29.7623956860      -31.8005165238  TIP3      6253            0.0000000000
     41078      6445  TIP3      H1             -4.9338389895       29.7487087676      -32.0599441526  TIP3      6253            0.0000000000
     41079      6445  TIP3      H2             -3.6269864376       29.0628393404      -32.3686279260  TIP3      6253            0.0000000000
     41080      6446  TIP3      OH2           -11.6895534648       33.9436965149      -35.6051382941  TIP3      6254            0.0000000000
     41081      6446  TIP3      H1            -11.4977318861       34.8753463695      -35.7821447591  TIP3      6254            0.0000000000
     41082      6446  TIP3      H2            -12.3964256737       33.7422062104      -36.2396352075  TIP3      6254            0.0000000000
     41083      6447  TIP3      OH2           -15.9747157296       29.1766347520      -41.4045727333  TIP3      6255            0.0000000000
     41084      6447  TIP3      H1            -15.4790789553       29.6191322339      -40.6895002462  TIP3      6255            0.0000000000
     41085      6447  TIP3      H2            -16.8479225721       29.0755130412      -40.9936708165  TIP3      6255            0.0000000000
     41086      6448  TIP3      OH2           -10.2705429638       31.7227675679      -36.1896739655  TIP3      6256            0.0000000000
     41087      6448  TIP3      H1            -10.6442256328       32.6197227072      -36.0807152343  TIP3      6256            0.0000000000
     41088      6448  TIP3      H2            -10.8782281129       31.2175766230      -35.6184356716  TIP3      6256            0.0000000000
     41089      6449  TIP3      OH2           -10.0975770376       35.0682548908      -29.8948648908  TIP3      6257            0.0000000000
     41090      6449  TIP3      H1             -9.7520149004       35.9791044516      -29.7978614070  TIP3      6257            0.0000000000
     41091      6449  TIP3      H2             -9.3374625539       34.5534897562      -29.5810245847  TIP3      6257            0.0000000000
     41092      6450  TIP3      OH2           -12.0494119185      -36.7816940099      -37.2777468631  TIP3      6258            0.0000000000
     41093      6450  TIP3      H1            -12.7236385077      -37.0393243140      -36.6431433496  TIP3      6258            0.0000000000
     41094      6450  TIP3      H2            -11.4017588089      -36.3319324831      -36.6728683468  TIP3      6258            0.0000000000
     41095      6451  TIP3      OH2            -6.6615449591       31.7549558285      -30.0524665652  TIP3      6259            0.0000000000
     41096      6451  TIP3      H1             -7.0342967807       31.6943486250      -29.1446347384  TIP3      6259            0.0000000000
     41097      6451  TIP3      H2             -6.4969209781       30.8169649480      -30.2620379893  TIP3      6259            0.0000000000
     41098      6452  TIP3      OH2            -3.8782675967       32.8075807969      -40.5913506232  TIP3      6260            0.0000000000
     41099      6452  TIP3      H1             -3.5868306166       32.2641422027      -39.8378724766  TIP3      6260            0.0000000000
     41100      6452  TIP3      H2             -4.8386716658       32.6555880633      -40.5481624472  TIP3      6260            0.0000000000
     41101      6453  TIP3      OH2            -3.5411375387       36.3251587297      -28.4592773300  TIP3      6261            0.0000000000
     41102      6453  TIP3      H1             -4.1447666822       35.5663816137      -28.6098429881  TIP3      6261            0.0000000000
     41103      6453  TIP3      H2             -3.7543302329       36.9083709308      -29.1920543306  TIP3      6261            0.0000000000
     41104      6454  TIP3      OH2           -15.1704442023       23.5809003494      -28.2423516358  TIP3      6262            0.0000000000
     41105      6454  TIP3      H1            -15.9157734492       23.9761501321      -27.7677583074  TIP3      6262            0.0000000000
     41106      6454  TIP3      H2            -14.9817262810       22.7950687052      -27.6983503243  TIP3      6262            0.0000000000
     41107      6455  TIP3      OH2            -3.0623549043       31.3111501652      -38.4230706577  TIP3      6263            0.0000000000
     41108      6455  TIP3      H1             -3.2690755606       30.5114575872      -37.9001716502  TIP3      6263            0.0000000000
     41109      6455  TIP3      H2             -2.0878258315       31.2812217684      -38.3783850426  TIP3      6263            0.0000000000
     41110      6456  TIP3      OH2           -16.1187239690       34.7250584315      -29.4099088886  TIP3      6264            0.0000000000
     41111      6456  TIP3      H1            -15.9974499813       34.1610018776      -28.6163358539  TIP3      6264            0.0000000000
     41112      6456  TIP3      H2            -16.5854708060       35.5067559585      -29.0809933630  TIP3      6264            0.0000000000
     41113      6457  TIP3      OH2           -10.9896813954       33.6219702184      -39.9717518255  TIP3      6265            0.0000000000
     41114      6457  TIP3      H1            -10.3349618228       32.9696686935      -39.6856974236  TIP3      6265            0.0000000000
     41115      6457  TIP3      H2            -10.6240618573       34.4641006535      -39.6657236203  TIP3      6265            0.0000000000
     41116      6458  TIP3      OH2           -14.8243552503       30.8092557157      -39.4538104490  TIP3      6266            0.0000000000
     41117      6458  TIP3      H1            -15.2826802806       31.3173001735      -38.7551687666  TIP3      6266            0.0000000000
     41118      6458  TIP3      H2            -14.3647493565       31.5406723742      -39.9294172763  TIP3      6266            0.0000000000
     41119      6459  TIP3      OH2            -6.3472493673       23.2309635923      -29.2105716963  TIP3      6267            0.0000000000
     41120      6459  TIP3      H1             -5.6892418640       23.5781821274      -28.5729230003  TIP3      6267            0.0000000000
     41121      6459  TIP3      H2             -6.8218338962       22.5387358544      -28.7135548829  TIP3      6267            0.0000000000
     41122      6460  TIP3      OH2            -5.8875799987       23.3077576014      -37.9255037001  TIP3      6268            0.0000000000
     41123      6460  TIP3      H1             -5.2419483014       23.6548537413      -38.5627855917  TIP3      6268            0.0000000000
     41124      6460  TIP3      H2             -5.5746678368       23.7131824102      -37.0818591359  TIP3      6268            0.0000000000
     41125      6461  TIP3      OH2            -8.4896708365       35.0173801242      -39.2839985631  TIP3      6269            0.0000000000
     41126      6461  TIP3      H1             -9.2767586867       35.5638873923      -39.4700760541  TIP3      6269            0.0000000000
     41127      6461  TIP3      H2             -7.8325577038       35.4455370427      -39.8767455518  TIP3      6269            0.0000000000
     41128      6462  TIP3      OH2            -9.0108316911       25.0820735851      -37.2763819498  TIP3      6270            0.0000000000
     41129      6462  TIP3      H1             -8.1538070317       25.5648007576      -37.2981333326  TIP3      6270            0.0000000000
     41130      6462  TIP3      H2             -9.0659958550       24.7629463452      -36.3548502445  TIP3      6270            0.0000000000
     41131      6463  TIP3      OH2            -7.9939172879       25.8843770833      -28.1991679038  TIP3      6271            0.0000000000
     41132      6463  TIP3      H1             -8.0792105611       26.2773147983      -27.2992592774  TIP3      6271            0.0000000000
     41133      6463  TIP3      H2             -7.5084988578       25.0600344569      -28.0224490982  TIP3      6271            0.0000000000
     41134      6464  TIP3      OH2            -7.9692457613       21.8235728717      -36.9610476073  TIP3      6272            0.0000000000
     41135      6464  TIP3      H1             -8.4570744539       22.3105917088      -36.2728807680  TIP3      6272            0.0000000000
     41136      6464  TIP3      H2             -7.1895483193       22.4033095609      -37.1412800151  TIP3      6272            0.0000000000
     41137      6465  TIP3      OH2           -10.7585568045      -36.8155660849      -39.6537963135  TIP3      6273            0.0000000000
     41138      6465  TIP3      H1            -10.3482102970      -35.9407183526      -39.5980631372  TIP3      6273            0.0000000000
     41139      6465  TIP3      H2            -11.3658818620      -36.7869202518      -38.8823268769  TIP3      6273            0.0000000000
     41140      6466  TIP3      OH2           -12.3472420078       22.9427066449      -39.4291752554  TIP3      6274            0.0000000000
     41141      6466  TIP3      H1            -12.3194656369       23.7524242824      -38.8826345438  TIP3      6274            0.0000000000
     41142      6466  TIP3      H2            -11.5621025805       22.4585798074      -39.1191733108  TIP3      6274            0.0000000000
     41143      6467  TIP3      OH2            -2.2889962321       23.7014152957      -27.2042603849  TIP3      6275            0.0000000000
     41144      6467  TIP3      H1             -3.2294405565       23.8834698081      -27.4107229700  TIP3      6275            0.0000000000
     41145      6467  TIP3      H2             -1.8634456806       23.8550631431      -28.0612657628  TIP3      6275            0.0000000000
     41146      6468  TIP3      OH2            -3.1976052807       27.5024105451      -33.4422213321  TIP3      6276            0.0000000000
     41147      6468  TIP3      H1             -3.9321530261       26.8961143519      -33.2231601289  TIP3      6276            0.0000000000
     41148      6468  TIP3      H2             -2.4940316909       27.1506278865      -32.8514148530  TIP3      6276            0.0000000000
     41149      6469  TIP3      OH2           -13.9955506047       33.0549255549      -40.6706747088  TIP3      6277            0.0000000000
     41150      6469  TIP3      H1            -13.4616363579       33.8402697816      -40.4899180356  TIP3      6277            0.0000000000
     41151      6469  TIP3      H2            -13.4442591572       32.6817404146      -41.3877023163  TIP3      6277            0.0000000000
     41152      6470  TIP3      OH2           -15.8581486744       26.3435272157      -41.5792799607  TIP3      6278            0.0000000000
     41153      6470  TIP3      H1            -15.6104287965       27.2624891495      -41.4124244858  TIP3      6278            0.0000000000
     41154      6470  TIP3      H2            -16.5124704602       26.4246871454      -42.2926899369  TIP3      6278            0.0000000000
     41155      6471  TIP3      OH2           -15.0571827740       20.8408206285      -32.3762461203  TIP3      6279            0.0000000000
     41156      6471  TIP3      H1            -15.1203209018       20.8605960518      -33.3589761963  TIP3      6279            0.0000000000
     41157      6471  TIP3      H2            -15.3627186524       19.9223475045      -32.1925688439  TIP3      6279            0.0000000000
     41158      6472  TIP3      OH2           -15.4317732529       34.7507914596      -36.3679212347  TIP3      6280            0.0000000000
     41159      6472  TIP3      H1            -16.3607997830       34.5655096933      -36.1963751130  TIP3      6280            0.0000000000
     41160      6472  TIP3      H2            -15.5689551705       35.4157606147      -37.0783809605  TIP3      6280            0.0000000000
     41161      6473  TIP3      OH2           -12.0255041199       35.5264739525      -23.5410440731  TIP3      6281            0.0000000000
     41162      6473  TIP3      H1            -11.6118912153       36.3765503752      -23.7367896335  TIP3      6281            0.0000000000
     41163      6473  TIP3      H2            -11.9541841491       35.0506512433      -24.3792569173  TIP3      6281            0.0000000000
     41164      6474  TIP3      OH2            -7.2331318910       35.9819539026      -41.4671220424  TIP3      6282            0.0000000000
     41165      6474  TIP3      H1             -7.8317801201       35.5013646513      -42.0821413844  TIP3      6282            0.0000000000
     41166      6474  TIP3      H2             -6.5861441016       36.3380819565      -42.0831891410  TIP3      6282            0.0000000000
     41167      6475  TIP3      OH2            -5.1808318257       34.0525415787      -24.4488263570  TIP3      6283            0.0000000000
     41168      6475  TIP3      H1             -5.5863295444       33.3237252765      -23.9313336954  TIP3      6283            0.0000000000
     41169      6475  TIP3      H2             -4.3996219647       34.2380232398      -23.9017047141  TIP3      6283            0.0000000000
     41170      6476  TIP3      OH2            -3.1085419859       35.2806719578      -41.9546601173  TIP3      6284            0.0000000000
     41171      6476  TIP3      H1             -3.1216813991       34.4080483417      -41.5030851760  TIP3      6284            0.0000000000
     41172      6476  TIP3      H2             -2.2331536641       35.2752497246      -42.3623252474  TIP3      6284            0.0000000000
     41173      6477  TIP3      OH2           -17.0806626255       31.4654549492      -24.3265235247  TIP3      6285            0.0000000000
     41174      6477  TIP3      H1            -17.4783884175       30.5815558475      -24.3081967300  TIP3      6285            0.0000000000
     41175      6477  TIP3      H2            -17.8013216726       32.0390993303      -24.6477792871  TIP3      6285            0.0000000000
     41176      6478  TIP3      OH2           -12.2606774112       31.1154596374      -41.8229630915  TIP3      6286            0.0000000000
     41177      6478  TIP3      H1            -11.9019246295       30.7078612554      -41.0065224563  TIP3      6286            0.0000000000
     41178      6478  TIP3      H2            -11.6468867485       30.8051709370      -42.5213193691  TIP3      6286            0.0000000000
     41179      6479  TIP3      OH2           -10.2529161349       31.1945933161      -25.3886912143  TIP3      6287            0.0000000000
     41180      6479  TIP3      H1            -10.1224527813       31.6531782556      -26.2339423907  TIP3      6287            0.0000000000
     41181      6479  TIP3      H2            -10.3457058062       30.2494622019      -25.6491012659  TIP3      6287            0.0000000000
     41182      6480  TIP3      OH2            -4.5039829850       31.3613635924      -27.2062411688  TIP3      6288            0.0000000000
     41183      6480  TIP3      H1             -3.6520696435       31.8147365137      -27.3926643737  TIP3      6288            0.0000000000
     41184      6480  TIP3      H2             -5.1195649460       32.0978424033      -27.1947996248  TIP3      6288            0.0000000000
     41185      6481  TIP3      OH2           -16.2022946810       28.2069252232      -24.5676945809  TIP3      6289            0.0000000000
     41186      6481  TIP3      H1            -15.3930993957       27.6716986912      -24.6624326731  TIP3      6289            0.0000000000
     41187      6481  TIP3      H2            -15.9009533068       28.8995478201      -23.9551678878  TIP3      6289            0.0000000000
     41188      6482  TIP3      OH2           -11.1897159359       29.6896434854      -39.8272956335  TIP3      6290            0.0000000000
     41189      6482  TIP3      H1            -11.8873901745       29.1910122306      -39.3436073673  TIP3      6290            0.0000000000
     41190      6482  TIP3      H2            -10.8530049810       29.0271592802      -40.4653914749  TIP3      6290            0.0000000000
     41191      6483  TIP3      OH2           -12.6010965097       27.4580394384      -28.4375045450  TIP3      6291            0.0000000000
     41192      6483  TIP3      H1            -12.9794695291       28.0400602479      -27.7428533967  TIP3      6291            0.0000000000
     41193      6483  TIP3      H2            -11.7570883490       27.9165987362      -28.5621609096  TIP3      6291            0.0000000000
     41194      6484  TIP3      OH2           -10.1416394965       28.0232873279      -41.9564079345  TIP3      6292            0.0000000000
     41195      6484  TIP3      H1             -9.8326663725       27.9789813116      -42.8773132051  TIP3      6292            0.0000000000
     41196      6484  TIP3      H2             -9.2740381393       27.9446589707      -41.4804936010  TIP3      6292            0.0000000000
     41197      6485  TIP3      OH2            -1.1639879295       30.6599924882       42.4761706778  TIP3      6293            0.0000000000
     41198      6485  TIP3      H1             -1.5745377536       30.8387041884       41.6209063227  TIP3      6293            0.0000000000
     41199      6485  TIP3      H2             -0.8080111886       31.5262903073       42.7170904742  TIP3      6293            0.0000000000
     41200      6486  TIP3      OH2           -11.5529712523       25.2649651834      -26.9708678966  TIP3      6294            0.0000000000
     41201      6486  TIP3      H1            -11.3490648836       24.4754807765      -27.5032053777  TIP3      6294            0.0000000000
     41202      6486  TIP3      H2            -11.7193401822       25.9575081240      -27.6351960638  TIP3      6294            0.0000000000
     41203      6487  TIP3      OH2           -10.7636847507       23.1778969811      -28.8353769005  TIP3      6295            0.0000000000
     41204      6487  TIP3      H1            -10.2023058350       23.6556928288      -29.4924498387  TIP3      6295            0.0000000000
     41205      6487  TIP3      H2            -11.6594319892       23.2146258091      -29.2302963509  TIP3      6295            0.0000000000
     41206      6488  TIP3      OH2            -9.7108799490       29.0802036897      -28.6082475688  TIP3      6296            0.0000000000
     41207      6488  TIP3      H1             -8.9530419555       28.7243964547      -29.0828244399  TIP3      6296            0.0000000000
     41208      6488  TIP3      H2            -10.1049112185       29.6887240760      -29.2700248718  TIP3      6296            0.0000000000
     41209      6489  TIP3      OH2            -4.8340428946       26.1073385492      -24.2001692172  TIP3      6297            0.0000000000
     41210      6489  TIP3      H1             -4.3030050410       25.3382052519      -23.9445169411  TIP3      6297            0.0000000000
     41211      6489  TIP3      H2             -4.1666271086       26.6162040062      -24.6811728958  TIP3      6297            0.0000000000
     41212      6490  TIP3      OH2            -3.7036754108       29.2750032307      -25.7291397351  TIP3      6298            0.0000000000
     41213      6490  TIP3      H1             -3.9622785410       30.0798299632      -26.2340137895  TIP3      6298            0.0000000000
     41214      6490  TIP3      H2             -2.7261082235       29.3228711161      -25.7115448315  TIP3      6298            0.0000000000
     41215      6491  TIP3      OH2           -13.6186175761       26.2503433203      -25.0372160159  TIP3      6299            0.0000000000
     41216      6491  TIP3      H1            -14.1154126425       25.4216321139      -24.9596214028  TIP3      6299            0.0000000000
     41217      6491  TIP3      H2            -12.7120095297       25.9411378840      -25.2249873726  TIP3      6299            0.0000000000
     41218      6492  TIP3      OH2           -10.1977933792       20.6000603767      -28.8356895980  TIP3      6300            0.0000000000
     41219      6492  TIP3      H1            -10.4692503452       21.5470220529      -28.8059157368  TIP3      6300            0.0000000000
     41220      6492  TIP3      H2            -10.9443346626       20.2191207039      -29.3316769635  TIP3      6300            0.0000000000
     41221      6493  TIP3      OH2            -9.0925843417       25.0527429525      -24.8916102905  TIP3      6301            0.0000000000
     41222      6493  TIP3      H1             -9.2249020921       24.7596080365      -23.9653539646  TIP3      6301            0.0000000000
     41223      6493  TIP3      H2             -9.8600893505       24.6347489684      -25.3193121000  TIP3      6301            0.0000000000
     41224      6494  TIP3      OH2            -6.5076847642       23.9777484782      -25.6122045113  TIP3      6302            0.0000000000
     41225      6494  TIP3      H1             -7.3328299168       24.3856017335      -25.3028370259  TIP3      6302            0.0000000000
     41226      6494  TIP3      H2             -6.3275380532       23.3977086235      -24.8421068487  TIP3      6302            0.0000000000
     41227      6495  TIP3      OH2            -5.0129717800       22.5369039953      -23.6007673403  TIP3      6303            0.0000000000
     41228      6495  TIP3      H1             -4.9993966694       21.5629977752      -23.7659183999  TIP3      6303            0.0000000000
     41229      6495  TIP3      H2             -5.2082516839       22.5981316091      -22.6516518233  TIP3      6303            0.0000000000
     41230      6496  TIP3      OH2           -15.3312480755       23.6591258461      -24.5938632257  TIP3      6304            0.0000000000
     41231      6496  TIP3      H1            -15.3793582220       22.9223633911      -25.2366015813  TIP3      6304            0.0000000000
     41232      6496  TIP3      H2            -15.0402650337       23.1717704517      -23.8065648228  TIP3      6304            0.0000000000
     41233      6497  TIP3      OH2           -10.6554269692       20.2854306907      -26.1646263283  TIP3      6305            0.0000000000
     41234      6497  TIP3      H1             -9.8371161692       19.9615759470      -25.7669861522  TIP3      6305            0.0000000000
     41235      6497  TIP3      H2            -10.4801446700       20.2737744623      -27.1256070726  TIP3      6305            0.0000000000
     41236      6498  TIP3      OH2           -16.7782957149       32.7531052220      -41.2624931255  TIP3      6306            0.0000000000
     41237      6498  TIP3      H1            -15.8173686606       32.7602207715      -41.0882741608  TIP3      6306            0.0000000000
     41238      6498  TIP3      H2            -16.7704066053       32.7725980843      -42.2349020287  TIP3      6306            0.0000000000
     41239      6499  TIP3      OH2           -17.4035783085       36.9646638529      -34.0432099256  TIP3      6307            0.0000000000
     41240      6499  TIP3      H1            -17.7241758219       36.0870574509      -33.7800508301  TIP3      6307            0.0000000000
     41241      6499  TIP3      H2            -16.6691034453       37.1184176316      -33.4195177703  TIP3      6307            0.0000000000
     41242      6500  TIP3      OH2            -1.2038110541       33.0562879184      -23.5560352506  TIP3      6308            0.0000000000
     41243      6500  TIP3      H1             -1.9546228150       32.8224565336      -23.0031295378  TIP3      6308            0.0000000000
     41244      6500  TIP3      H2             -0.6310965558       33.5170281045      -22.9114275485  TIP3      6308            0.0000000000
     41245      6501  TIP3      OH2            -0.1920485867       30.8219949659      -38.4504614927  TIP3      6309            0.0000000000
     41246      6501  TIP3      H1              0.4438254582       31.5362966047      -38.2531241740  TIP3      6309            0.0000000000
     41247      6501  TIP3      H2             -0.1847336390       30.3639287927      -37.5760951971  TIP3      6309            0.0000000000
     41248      6502  TIP3      OH2            -0.0849969314       29.0050316761      -36.4094396234  TIP3      6310            0.0000000000
     41249      6502  TIP3      H1             -0.8041261130       28.3435570049      -36.2490907569  TIP3      6310            0.0000000000
     41250      6502  TIP3      H2              0.3451038240       29.0327086160      -35.5261417598  TIP3      6310            0.0000000000
     41251      6503  TIP3      OH2            -0.0238163658       32.1039914730      -31.2687839723  TIP3      6311            0.0000000000
     41252      6503  TIP3      H1              0.5525729384       31.4223646874      -31.6655757268  TIP3      6311            0.0000000000
     41253      6503  TIP3      H2              0.4023868939       32.9361013724      -31.5864152341  TIP3      6311            0.0000000000
     41254      6504  TIP3      OH2            -1.3541816103       34.5886965043      -29.3274884650  TIP3      6312            0.0000000000
     41255      6504  TIP3      H1             -2.1403173416       35.0794035412      -29.0483861658  TIP3      6312            0.0000000000
     41256      6504  TIP3      H2             -1.5877725806       34.2883018198      -30.2374219124  TIP3      6312            0.0000000000
     41257      6505  TIP3      OH2             0.2229871744       28.6177729121      -40.1752454534  TIP3      6313            0.0000000000
     41258      6505  TIP3      H1             -0.5034112913       28.8405594858      -40.7797138220  TIP3      6313            0.0000000000
     41259      6505  TIP3      H2              0.1424187755       29.3732138011      -39.5427625947  TIP3      6313            0.0000000000
     41260      6506  TIP3      OH2            -1.8873987460       26.0482042801      -41.5087426261  TIP3      6314            0.0000000000
     41261      6506  TIP3      H1             -1.0896245192       26.3726706562      -41.9744484746  TIP3      6314            0.0000000000
     41262      6506  TIP3      H2             -1.9018107800       25.1261329519      -41.8471049140  TIP3      6314            0.0000000000
     41263      6507  TIP3      OH2            -2.0016220696       27.3269310774      -35.7726125605  TIP3      6315            0.0000000000
     41264      6507  TIP3      H1             -2.3047400882       26.4769989979      -36.1607698238  TIP3      6315            0.0000000000
     41265      6507  TIP3      H2             -2.3971926436       27.2938176478      -34.8680670243  TIP3      6315            0.0000000000
     41266      6508  TIP3      OH2           -17.0213231597       29.7087049829      -31.7992950648  TIP3      6316            0.0000000000
     41267      6508  TIP3      H1            -17.0801254510       29.3811830499      -32.7255953468  TIP3      6316            0.0000000000
     41268      6508  TIP3      H2            -16.0584643614       29.6470860468      -31.5943082455  TIP3      6316            0.0000000000
     41269      6509  TIP3      OH2            -0.9569595347       29.5846736443      -25.8828497664  TIP3      6317            0.0000000000
     41270      6509  TIP3      H1             -0.5354671161       28.7112875689      -26.0559131111  TIP3      6317            0.0000000000
     41271      6509  TIP3      H2             -0.3273835400       30.2450810215      -26.2428236143  TIP3      6317            0.0000000000
     41272      6510  TIP3      OH2            -0.1739327395       27.0772753176      -26.3525070296  TIP3      6318            0.0000000000
     41273      6510  TIP3      H1             -1.0016423611       26.7243831973      -25.9536593748  TIP3      6318            0.0000000000
     41274      6510  TIP3      H2              0.5061550682       26.4811195804      -25.9720974802  TIP3      6318            0.0000000000
     41275      6511  TIP3      OH2            -2.0765405672       23.6049934147      -42.6227693038  TIP3      6319            0.0000000000
     41276      6511  TIP3      H1             -1.5547945953       23.0550425886      -41.9892582889  TIP3      6319            0.0000000000
     41277      6511  TIP3      H2             -2.9956416255       23.5116721002      -42.3237474911  TIP3      6319            0.0000000000
     41278      6512  TIP3      OH2            -2.8068289127       25.4030499115      -37.4486732740  TIP3      6320            0.0000000000
     41279      6512  TIP3      H1             -2.4263639543       24.5532045003      -37.1171684304  TIP3      6320            0.0000000000
     41280      6512  TIP3      H2             -2.1990956718       25.5383459354      -38.1966431149  TIP3      6320            0.0000000000
     41281      6513  TIP3      OH2            -1.4242182451       26.0186598879      -31.9427328288  TIP3      6321            0.0000000000
     41282      6513  TIP3      H1             -0.4477298155       25.9560956346      -31.7898700936  TIP3      6321            0.0000000000
     41283      6513  TIP3      H2             -1.7120202792       26.0111792894      -31.0106393078  TIP3      6321            0.0000000000
     41284      6514  TIP3      OH2            -1.6095488540       26.7041845694      -29.2750601669  TIP3      6322            0.0000000000
     41285      6514  TIP3      H1             -2.2771325551       26.8646811299      -28.5758214394  TIP3      6322            0.0000000000
     41286      6514  TIP3      H2             -1.1155176787       27.5486704878      -29.3283283851  TIP3      6322            0.0000000000
     41287      6515  TIP3      OH2           -17.7120347884       25.2250594864      -25.2616157137  TIP3      6323            0.0000000000
     41288      6515  TIP3      H1            -16.8175123813       24.8986197361      -25.0516737524  TIP3      6323            0.0000000000
     41289      6515  TIP3      H2            -18.1873955390       24.3748906469      -25.3657527197  TIP3      6323            0.0000000000
     41290      6516  TIP3      OH2             0.7639516261       21.0807881416      -24.2012903458  TIP3      6324            0.0000000000
     41291      6516  TIP3      H1              0.9850306359       20.2838121482      -24.7083263679  TIP3      6324            0.0000000000
     41292      6516  TIP3      H2              0.6507417632       21.7519358143      -24.9110909759  TIP3      6324            0.0000000000
     41293      6517  TIP3      OH2            -1.6978797926       22.9816645098      -37.1967407135  TIP3      6325            0.0000000000
     41294      6517  TIP3      H1             -1.4206987844       22.4106289203      -36.4522893416  TIP3      6325            0.0000000000
     41295      6517  TIP3      H2             -2.2258756756       22.3338688887      -37.7012000322  TIP3      6325            0.0000000000
     41296      6518  TIP3      OH2           -16.1237343532       23.2733492043      -32.1380432503  TIP3      6326            0.0000000000
     41297      6518  TIP3      H1            -15.8215176713       22.3387278614      -32.1772522571  TIP3      6326            0.0000000000
     41298      6518  TIP3      H2            -15.2820815328       23.7618760412      -32.2743995015  TIP3      6326            0.0000000000
     41299      6519  TIP3      OH2           -17.7499792237       26.0788465929      -31.3582578118  TIP3      6327            0.0000000000
     41300      6519  TIP3      H1            -17.5397742405       25.3797563904      -31.9968310421  TIP3      6327            0.0000000000
     41301      6519  TIP3      H2            -17.1323935724       26.7841895662      -31.6263300113  TIP3      6327            0.0000000000
     41302      6520  TIP3      OH2             0.2158307513       22.8779008973      -26.1485044766  TIP3      6328            0.0000000000
     41303      6520  TIP3      H1             -0.6463541277       23.1743758917      -25.7755307424  TIP3      6328            0.0000000000
     41304      6520  TIP3      H2             -0.1247126295       22.2579728610      -26.8220465884  TIP3      6328            0.0000000000
     41305      6521  TIP3      OH2            -0.1305281803       22.6652900092      -40.9476835385  TIP3      6329            0.0000000000
     41306      6521  TIP3      H1              0.5382197785       22.1405791596      -41.4188591284  TIP3      6329            0.0000000000
     41307      6521  TIP3      H2              0.4122592747       23.3945178267      -40.5954039645  TIP3      6329            0.0000000000
     41308      6522  TIP3      OH2           -17.6311914215       22.6289770367      -37.6681015985  TIP3      6330            0.0000000000
     41309      6522  TIP3      H1            -18.5790011925       22.7706262522      -37.5682504213  TIP3      6330            0.0000000000
     41310      6522  TIP3      H2            -17.4281204892       23.1887930544      -38.4460018671  TIP3      6330            0.0000000000
     41311      6523  TIP3      OH2           -17.7921182448       21.1449412522      -29.4649009676  TIP3      6331            0.0000000000
     41312      6523  TIP3      H1            -18.3644358362       20.9683998962      -28.6933399419  TIP3      6331            0.0000000000
     41313      6523  TIP3      H2            -18.1342923533       21.9796890068      -29.8075466808  TIP3      6331            0.0000000000
     41314      6524  TIP3      OH2           -15.1206610769       34.8175243864      -25.0909207130  TIP3      6332            0.0000000000
     41315      6524  TIP3      H1            -16.0061719679       35.0307560709      -25.4345444962  TIP3      6332            0.0000000000
     41316      6524  TIP3      H2            -15.3245505642       34.1116964395      -24.4568231323  TIP3      6332            0.0000000000
     41317      6525  TIP3      OH2           -12.5090182379       35.5700320821      -28.8220674861  TIP3      6333            0.0000000000
     41318      6525  TIP3      H1            -12.9150994350       36.0534404955      -29.5540263727  TIP3      6333            0.0000000000
     41319      6525  TIP3      H2            -11.6019333385       35.4142266251      -29.1680921427  TIP3      6333            0.0000000000
     41320      6526  TIP3      OH2            -1.0157142578       20.5280075563      -27.5973238482  TIP3      6334            0.0000000000
     41321      6526  TIP3      H1             -1.8225134055       20.7909630283      -28.0702692191  TIP3      6334            0.0000000000
     41322      6526  TIP3      H2             -0.9220359523       19.6079664635      -27.9294439070  TIP3      6334            0.0000000000
     41323      6527  TIP3      OH2           -13.4673032761       36.1597346247      -34.4221351183  TIP3      6335            0.0000000000
     41324      6527  TIP3      H1            -13.7016791446       35.2297379039      -34.5904698640  TIP3      6335            0.0000000000
     41325      6527  TIP3      H2            -12.9932602558       36.0665465078      -33.5771224370  TIP3      6335            0.0000000000
     41326      6528  TIP3      OH2           -11.6335459127       35.8454901998      -32.0463155111  TIP3      6336            0.0000000000
     41327      6528  TIP3      H1            -11.6762832076       35.0229582306      -32.5779220402  TIP3      6336            0.0000000000
     41328      6528  TIP3      H2            -11.0943893935       35.4771173171      -31.3047583157  TIP3      6336            0.0000000000
     41329      6529  TIP3      OH2            -7.0226281053       21.8541516241      -33.3759649063  TIP3      6337            0.0000000000
     41330      6529  TIP3      H1             -7.7259442432       21.6017119705      -32.7678439867  TIP3      6337            0.0000000000
     41331      6529  TIP3      H2             -7.3221875185       21.4333698358      -34.1925578005  TIP3      6337            0.0000000000
     41332      6530  TIP3      OH2            -2.2402598652       20.0655329191      -33.4154621501  TIP3      6338            0.0000000000
     41333      6530  TIP3      H1             -1.6355221510       20.6824905215      -33.8900669048  TIP3      6338            0.0000000000
     41334      6530  TIP3      H2             -3.1198002416       20.3095614966      -33.8000234161  TIP3      6338            0.0000000000
     41335      6531  TIP3      OH2            -0.5670615069       21.3293369810      -35.1800654435  TIP3      6339            0.0000000000
     41336      6531  TIP3      H1              0.0796685382       20.7660818929      -35.6639884942  TIP3      6339            0.0000000000
     41337      6531  TIP3      H2             -0.0029309795       22.1119880599      -34.9793016975  TIP3      6339            0.0000000000
     41338      6532  TIP3      OH2           -15.1617712874       20.8114329509      -35.1658290120  TIP3      6340            0.0000000000
     41339      6532  TIP3      H1            -16.0795726847       20.6937288313      -35.4861900178  TIP3      6340            0.0000000000
     41340      6532  TIP3      H2            -14.7512130532       19.9453145837      -35.4290448501  TIP3      6340            0.0000000000
     41341      6533  TIP3      OH2           -16.4960233756       20.4948884799      -39.9299092471  TIP3      6341            0.0000000000
     41342      6533  TIP3      H1            -15.9088667414       21.0878829850      -40.4418058552  TIP3      6341            0.0000000000
     41343      6533  TIP3      H2            -16.8719424385       21.1149242299      -39.2816580266  TIP3      6341            0.0000000000
     41344      6534  TIP3      OH2           -10.3674135944       21.1205398773      -35.6914679213  TIP3      6342            0.0000000000
     41345      6534  TIP3      H1            -10.3283047217       20.4230061265      -36.3668808260  TIP3      6342            0.0000000000
     41346      6534  TIP3      H2            -10.3795741753       20.5799694083      -34.8909092006  TIP3      6342            0.0000000000
     41347      6535  TIP3      OH2            -4.6018312187       20.5360740560      -34.4998173893  TIP3      6343            0.0000000000
     41348      6535  TIP3      H1             -4.9208938706       20.7421898942      -35.3818089332  TIP3      6343            0.0000000000
     41349      6535  TIP3      H2             -5.2436861209       19.8455069787      -34.2055644419  TIP3      6343            0.0000000000
     41350      6536  TIP3      OH2            -3.3653386938       20.8132040698      -38.3375305870  TIP3      6344            0.0000000000
     41351      6536  TIP3      H1             -3.8585099884       21.0152612429      -39.1503679246  TIP3      6344            0.0000000000
     41352      6536  TIP3      H2             -3.7989353342       19.9760185629      -38.0314622142  TIP3      6344            0.0000000000
     41353      6537  TIP3      OH2           -16.7335485925       36.2794582937      -37.9194508707  TIP3      6345            0.0000000000
     41354      6537  TIP3      H1            -17.6392028046       36.1808298254      -38.2630676871  TIP3      6345            0.0000000000
     41355      6537  TIP3      H2            -16.4888093869       37.1309150233      -38.3108914468  TIP3      6345            0.0000000000
     41356      6538  TIP3      OH2           -14.7175556982       21.9537507941      -41.2876365507  TIP3      6346            0.0000000000
     41357      6538  TIP3      H1            -13.8715069603       21.4938585007      -41.1542364059  TIP3      6346            0.0000000000
     41358      6538  TIP3      H2            -14.4866470097       22.8578024612      -41.0292963011  TIP3      6346            0.0000000000
     41359      6539  TIP3      OH2            -9.4035297251       22.9894940990      -38.8703597972  TIP3      6347            0.0000000000
     41360      6539  TIP3      H1             -9.1083241531       22.3039086896      -38.2371878775  TIP3      6347            0.0000000000
     41361      6539  TIP3      H2             -9.1699877983       23.7943351153      -38.3544080215  TIP3      6347            0.0000000000
     41362      6540  TIP3      OH2           -15.4208559718       21.2390187434      -25.9776693450  TIP3      6348            0.0000000000
     41363      6540  TIP3      H1            -15.9279761935       20.4065156615      -25.9906021256  TIP3      6348            0.0000000000
     41364      6540  TIP3      H2            -14.6272766170       20.9825649403      -25.4570832069  TIP3      6348            0.0000000000
     41365      6541  TIP3      OH2           -13.0396299622       20.5672459220      -24.2515996684  TIP3      6349            0.0000000000
     41366      6541  TIP3      H1            -12.1780930501       20.9071847270      -24.5507484455  TIP3      6349            0.0000000000
     41367      6541  TIP3      H2            -12.7896915823       19.6231812018      -24.1509323968  TIP3      6349            0.0000000000
     41368      6542  TIP3      OH2            -4.7523569496       19.9686123966      -24.1743115424  TIP3      6350            0.0000000000
     41369      6542  TIP3      H1             -4.6816721288       19.3735098977      -23.3981409680  TIP3      6350            0.0000000000
     41370      6542  TIP3      H2             -3.8735681676       19.8170269657      -24.5838030945  TIP3      6350            0.0000000000
     41371      6543  TIP3      OH2            -1.9413983717       35.9799862771      -25.9436352839  TIP3      6351            0.0000000000
     41372      6543  TIP3      H1             -1.6145691690       36.0438573282      -26.8606227256  TIP3      6351            0.0000000000
     41373      6543  TIP3      H2             -1.3573373160       36.6463443356      -25.5253405186  TIP3      6351            0.0000000000
     41374      6544  TIP3      OH2            12.9150232911       30.0161764233      -35.7444393076  TIP3      6352            0.0000000000
     41375      6544  TIP3      H1             12.7336963210       30.9767976724      -35.8443059428  TIP3      6352            0.0000000000
     41376      6544  TIP3      H2             12.2599069776       29.6498623783      -36.3616755022  TIP3      6352            0.0000000000
     41377      6545  TIP3      OH2            11.6934881994       28.6071407596      -32.2891580491  TIP3      6353            0.0000000000
     41378      6545  TIP3      H1             11.8854477492       28.1552102852      -31.4402132778  TIP3      6353            0.0000000000
     41379      6545  TIP3      H2             11.0069902297       28.0341413280      -32.6756464290  TIP3      6353            0.0000000000
     41380      6546  TIP3      OH2             3.7984896716       28.8111756860      -30.8061263184  TIP3      6354            0.0000000000
     41381      6546  TIP3      H1              3.6527950805       28.1094551929      -30.1475212486  TIP3      6354            0.0000000000
     41382      6546  TIP3      H2              4.7350193653       28.9968388814      -30.6588938451  TIP3      6354            0.0000000000
     41383      6547  TIP3      OH2            15.0770770796       31.9079177619      -33.7015617365  TIP3      6355            0.0000000000
     41384      6547  TIP3      H1             14.7099247211       31.1855552143      -33.1665885132  TIP3      6355            0.0000000000
     41385      6547  TIP3      H2             14.9625393469       32.6695878379      -33.1147065900  TIP3      6355            0.0000000000
     41386      6548  TIP3      OH2             5.3744077226       33.3297466652      -32.4071202456  TIP3      6356            0.0000000000
     41387      6548  TIP3      H1              4.9513345417       32.4736425816      -32.6053671584  TIP3      6356            0.0000000000
     41388      6548  TIP3      H2              6.3004733594       33.0091185695      -32.3474235986  TIP3      6356            0.0000000000
     41389      6549  TIP3      OH2             1.7585073739       26.5972357573      -36.8497955138  TIP3      6357            0.0000000000
     41390      6549  TIP3      H1              1.4793711058       27.4878760074      -36.5871233860  TIP3      6357            0.0000000000
     41391      6549  TIP3      H2              1.1897956094       26.4452606282      -37.6251221115  TIP3      6357            0.0000000000
     41392      6550  TIP3      OH2             1.5882662938       28.8106542722      -34.2281688635  TIP3      6358            0.0000000000
     41393      6550  TIP3      H1              1.9023636050       27.8887668329      -34.1076069912  TIP3      6358            0.0000000000
     41394      6550  TIP3      H2              2.4193743098       29.3154607594      -34.2554400218  TIP3      6358            0.0000000000
     41395      6551  TIP3      OH2            10.0061031712       30.9510971399      -31.4815169167  TIP3      6359            0.0000000000
     41396      6551  TIP3      H1             10.2913764630       30.7191449658      -32.3802205148  TIP3      6359            0.0000000000
     41397      6551  TIP3      H2             10.7707685622       31.4737314508      -31.1759715605  TIP3      6359            0.0000000000
     41398      6552  TIP3      OH2            18.5905800686       23.4128478485      -31.6853581091  TIP3      6360            0.0000000000
     41399      6552  TIP3      H1             18.7146903274       23.6708184283      -30.7508596560  TIP3      6360            0.0000000000
     41400      6552  TIP3      H2             19.4987969442       23.5292616315      -32.0097805399  TIP3      6360            0.0000000000
     41401      6553  TIP3      OH2            13.5068386012       25.9936917478      -31.2903778482  TIP3      6361            0.0000000000
     41402      6553  TIP3      H1             13.6816806248       25.0632153177      -31.0666569532  TIP3      6361            0.0000000000
     41403      6553  TIP3      H2             13.5254788118       25.9225971517      -32.2681433550  TIP3      6361            0.0000000000
     41404      6554  TIP3      OH2             6.4458110357       23.6865731443      -34.4839187947  TIP3      6362            0.0000000000
     41405      6554  TIP3      H1              6.5111780280       24.5378391152      -34.9694022790  TIP3      6362            0.0000000000
     41406      6554  TIP3      H2              5.9366136676       23.1716379264      -35.1415330586  TIP3      6362            0.0000000000
     41407      6555  TIP3      OH2            14.1231621841       24.3898339030      -35.7741607265  TIP3      6363            0.0000000000
     41408      6555  TIP3      H1             14.6637060753       23.9319526493      -35.0851229459  TIP3      6363            0.0000000000
     41409      6555  TIP3      H2             14.7989055672       24.9346285960      -36.2230381870  TIP3      6363            0.0000000000
     41410      6556  TIP3      OH2             2.7632149672       26.4033766201      -33.5620918100  TIP3      6364            0.0000000000
     41411      6556  TIP3      H1              3.3929013040       26.0711287053      -32.8921966525  TIP3      6364            0.0000000000
     41412      6556  TIP3      H2              3.1983809478       26.0689549095      -34.3795472775  TIP3      6364            0.0000000000
     41413      6557  TIP3      OH2             7.5049919970       27.9832217633      -34.1090601965  TIP3      6365            0.0000000000
     41414      6557  TIP3      H1              8.3945448750       27.6200532572      -33.9211591768  TIP3      6365            0.0000000000
     41415      6557  TIP3      H2              7.1502938022       27.3047300291      -34.7245312865  TIP3      6365            0.0000000000
     41416      6558  TIP3      OH2            18.7503961713       24.3433590966      -28.9592116234  TIP3      6366            0.0000000000
     41417      6558  TIP3      H1             18.4058823345       25.2128299036      -29.2851172753  TIP3      6366            0.0000000000
     41418      6558  TIP3      H2             18.9818016649       24.6065450910      -28.0605886542  TIP3      6366            0.0000000000
     41419      6559  TIP3      OH2             5.3806002760       23.0585321387      -30.2272247827  TIP3      6367            0.0000000000
     41420      6559  TIP3      H1              4.9941602675       23.5536683631      -30.9727331544  TIP3      6367            0.0000000000
     41421      6559  TIP3      H2              4.7896931710       23.3558140866      -29.5063676018  TIP3      6367            0.0000000000
     41422      6560  TIP3      OH2            12.2342518838       32.4004438515      -36.8437671987  TIP3      6368            0.0000000000
     41423      6560  TIP3      H1             12.2421114377       32.4892944425      -37.8197804502  TIP3      6368            0.0000000000
     41424      6560  TIP3      H2             11.9166802144       33.2549878280      -36.5237978821  TIP3      6368            0.0000000000
     41425      6561  TIP3      OH2             7.4667430179       30.5946948797      -30.4570358627  TIP3      6369            0.0000000000
     41426      6561  TIP3      H1              6.9144435792       31.3259240258      -30.1107426272  TIP3      6369            0.0000000000
     41427      6561  TIP3      H2              8.1447230435       31.0808661659      -30.9781665747  TIP3      6369            0.0000000000
     41428      6562  TIP3      OH2            15.8852377229       23.4997207860      -33.9563065560  TIP3      6370            0.0000000000
     41429      6562  TIP3      H1             15.4967568572       23.5248181647      -33.0632228680  TIP3      6370            0.0000000000
     41430      6562  TIP3      H2             16.8165276005       23.7194222250      -33.8015432964  TIP3      6370            0.0000000000
     41431      6563  TIP3      OH2             4.8678830141       24.9599091034      -32.2547390219  TIP3      6371            0.0000000000
     41432      6563  TIP3      H1              5.5167750294       25.6021812068      -31.9015987435  TIP3      6371            0.0000000000
     41433      6563  TIP3      H2              5.3194660512       24.6641744673      -33.0719819939  TIP3      6371            0.0000000000
     41434      6564  TIP3      OH2             6.3734718020       32.7433610812      -29.3106243827  TIP3      6372            0.0000000000
     41435      6564  TIP3      H1              6.2115781895       33.6977997476      -29.3918838894  TIP3      6372            0.0000000000
     41436      6564  TIP3      H2              5.6466261344       32.4956381651      -28.6996198933  TIP3      6372            0.0000000000
     41437      6565  TIP3      OH2             2.1562198703       32.6736124599      -38.0766769789  TIP3      6373            0.0000000000
     41438      6565  TIP3      H1              2.0813223353       32.8641093559      -39.0319130893  TIP3      6373            0.0000000000
     41439      6565  TIP3      H2              2.5700527029       33.4738776574      -37.7269259202  TIP3      6373            0.0000000000
     41440      6566  TIP3      OH2            15.8610224383       34.2891841339      -31.2321013368  TIP3      6374            0.0000000000
     41441      6566  TIP3      H1             14.8842761481       34.3487479710      -31.3004922891  TIP3      6374            0.0000000000
     41442      6566  TIP3      H2             16.1247487448       34.9002056645      -31.9380934368  TIP3      6374            0.0000000000
     41443      6567  TIP3      OH2            16.0252754473       22.4774233546      -30.4532469793  TIP3      6375            0.0000000000
     41444      6567  TIP3      H1             15.2505153238       22.6815696250      -31.0258885093  TIP3      6375            0.0000000000
     41445      6567  TIP3      H2             16.7467800681       22.7765595221      -31.0372387758  TIP3      6375            0.0000000000
     41446      6568  TIP3      OH2             8.8742533119       20.5283646164      -32.8642678457  TIP3      6376            0.0000000000
     41447      6568  TIP3      H1              8.5402199952       19.6219455959      -32.8252962314  TIP3      6376            0.0000000000
     41448      6568  TIP3      H2              8.0731570472       21.0208310183      -32.5310592283  TIP3      6376            0.0000000000
     41449      6569  TIP3      OH2            14.4440860135       35.4293883256      -34.9430079258  TIP3      6377            0.0000000000
     41450      6569  TIP3      H1             14.6113428145       34.6698522781      -35.5444971500  TIP3      6377            0.0000000000
     41451      6569  TIP3      H2             15.3179410198       35.8473804361      -34.9100776017  TIP3      6377            0.0000000000
     41452      6570  TIP3      OH2            15.1006946516       33.1651247701      -36.5121803403  TIP3      6378            0.0000000000
     41453      6570  TIP3      H1             15.2142902126       32.5734998119      -37.2741045091  TIP3      6378            0.0000000000
     41454      6570  TIP3      H2             15.0953797880       32.5507827986      -35.7520225546  TIP3      6378            0.0000000000
     41455      6571  TIP3      OH2            16.7742397077       32.5340507618      -27.9812495671  TIP3      6379            0.0000000000
     41456      6571  TIP3      H1             16.8179588086       31.7996244505      -28.6336833637  TIP3      6379            0.0000000000
     41457      6571  TIP3      H2             17.0184521781       33.2746705184      -28.5752116010  TIP3      6379            0.0000000000
     41458      6572  TIP3      OH2            11.4185530498       29.1293345748      -38.2648169032  TIP3      6380            0.0000000000
     41459      6572  TIP3      H1             10.7649266891       29.8448003284      -38.4386751593  TIP3      6380            0.0000000000
     41460      6572  TIP3      H2             12.2341455052       29.5065533989      -38.6665572667  TIP3      6380            0.0000000000
     41461      6573  TIP3      OH2            11.4368324591       28.2613026540      -41.1067996981  TIP3      6381            0.0000000000
     41462      6573  TIP3      H1             12.0092032905       28.4626305648      -40.3401266303  TIP3      6381            0.0000000000
     41463      6573  TIP3      H2             11.9832453342       27.6039645802      -41.5680597337  TIP3      6381            0.0000000000
     41464      6574  TIP3      OH2            18.7858575525       28.7720124475      -30.1544444017  TIP3      6382            0.0000000000
     41465      6574  TIP3      H1             18.2545033202       29.5763898246      -29.9929284953  TIP3      6382            0.0000000000
     41466      6574  TIP3      H2             19.3726375400       29.0889699040      -30.8715579915  TIP3      6382            0.0000000000
     41467      6575  TIP3      OH2            15.2073178134       29.0459696279      -37.0994033056  TIP3      6383            0.0000000000
     41468      6575  TIP3      H1             14.5476442442       29.4080184851      -36.4654446385  TIP3      6383            0.0000000000
     41469      6575  TIP3      H2             15.8170380548       28.5364361184      -36.5229765236  TIP3      6383            0.0000000000
     41470      6576  TIP3      OH2            15.0096517334       27.3364894910      -27.7896712454  TIP3      6384            0.0000000000
     41471      6576  TIP3      H1             15.0875134212       28.1112586207      -27.1986552929  TIP3      6384            0.0000000000
     41472      6576  TIP3      H2             14.4570333034       27.6931897510      -28.5054377180  TIP3      6384            0.0000000000
     41473      6577  TIP3      OH2             6.4283780463       29.9076321292      -35.6214580519  TIP3      6385            0.0000000000
     41474      6577  TIP3      H1              6.2850614917       29.4509014165      -36.4776997611  TIP3      6385            0.0000000000
     41475      6577  TIP3      H2              6.9164254325       29.2392582081      -35.0900282601  TIP3      6385            0.0000000000
     41476      6578  TIP3      OH2             7.9467680026       32.9156297763      -32.7036211727  TIP3      6386            0.0000000000
     41477      6578  TIP3      H1              8.1453583039       33.0399157178      -33.6460555148  TIP3      6386            0.0000000000
     41478      6578  TIP3      H2              8.8276345871       32.9460883805      -32.3000955063  TIP3      6386            0.0000000000
     41479      6579  TIP3      OH2             6.6693800909       28.4132500802      -31.6412467555  TIP3      6387            0.0000000000
     41480      6579  TIP3      H1              6.9869997395       28.4657819073      -32.5746704966  TIP3      6387            0.0000000000
     41481      6579  TIP3      H2              7.1130310129       29.1966485909      -31.2366418393  TIP3      6387            0.0000000000
     41482      6580  TIP3      OH2            13.0816546757       34.5116812173      -31.2801178004  TIP3      6388            0.0000000000
     41483      6580  TIP3      H1             12.8498252486       35.2008935793      -30.6492212636  TIP3      6388            0.0000000000
     41484      6580  TIP3      H2             13.1005094356       33.7102928273      -30.7287940043  TIP3      6388            0.0000000000
     41485      6581  TIP3      OH2             7.8149023305       33.3305050463      -27.0024076749  TIP3      6389            0.0000000000
     41486      6581  TIP3      H1              7.1312324624       33.7866420624      -26.4732331235  TIP3      6389            0.0000000000
     41487      6581  TIP3      H2              7.3141162726       33.0929645836      -27.8042819423  TIP3      6389            0.0000000000
     41488      6582  TIP3      OH2            13.8005763216       28.9696170148      -39.3625513385  TIP3      6390            0.0000000000
     41489      6582  TIP3      H1             14.4468812540       29.0742587016      -38.6248095485  TIP3      6390            0.0000000000
     41490      6582  TIP3      H2             14.2895746464       29.3101017539      -40.1419722424  TIP3      6390            0.0000000000
     41491      6583  TIP3      OH2             5.0705993681       29.2298156447      -28.0356898947  TIP3      6391            0.0000000000
     41492      6583  TIP3      H1              4.9156859533       30.1570910653      -28.2526885443  TIP3      6391            0.0000000000
     41493      6583  TIP3      H2              4.3309889965       29.0603598618      -27.4241760063  TIP3      6391            0.0000000000
     41494      6584  TIP3      OH2            11.4791576146       35.0008718604      -35.2827847076  TIP3      6392            0.0000000000
     41495      6584  TIP3      H1             12.2736497559       35.5269889005      -35.1172365130  TIP3      6392            0.0000000000
     41496      6584  TIP3      H2             11.0959037147       35.3668081850      -36.0802201566  TIP3      6392            0.0000000000
     41497      6585  TIP3      OH2             5.8777501755       35.1401567200      -26.3017133595  TIP3      6393            0.0000000000
     41498      6585  TIP3      H1              5.8977246495       35.5785599106      -27.1767785888  TIP3      6393            0.0000000000
     41499      6585  TIP3      H2              4.9503632740       35.2639289192      -26.0483029923  TIP3      6393            0.0000000000
     41500      6586  TIP3      OH2            17.7667956853       20.1216213737      -39.1267721188  TIP3      6394            0.0000000000
     41501      6586  TIP3      H1             16.7952963124       20.2645361560      -39.0773883226  TIP3      6394            0.0000000000
     41502      6586  TIP3      H2             18.0391260930       20.9144709895      -39.6204881298  TIP3      6394            0.0000000000
     41503      6587  TIP3      OH2             5.4284910918       28.7542693324      -38.1185065407  TIP3      6395            0.0000000000
     41504      6587  TIP3      H1              4.9271570505       29.5547248391      -38.3947221053  TIP3      6395            0.0000000000
     41505      6587  TIP3      H2              4.7394574506       28.0803346957      -38.0584479049  TIP3      6395            0.0000000000
     41506      6588  TIP3      OH2            18.7076093055       34.5083939906      -41.1902934481  TIP3      6396            0.0000000000
     41507      6588  TIP3      H1             19.1007704717       35.3846149502      -41.1589148084  TIP3      6396            0.0000000000
     41508      6588  TIP3      H2             19.4867852439       33.9251179341      -41.0982623240  TIP3      6396            0.0000000000
     41509      6589  TIP3      OH2             1.7597351390       31.5250299228      -28.6083968490  TIP3      6397            0.0000000000
     41510      6589  TIP3      H1              1.4141148820       31.4055031268      -29.5052601168  TIP3      6397            0.0000000000
     41511      6589  TIP3      H2              2.1475953693       30.6310614952      -28.4739140053  TIP3      6397            0.0000000000
     41512      6590  TIP3      OH2             1.6501525288       34.1116074776      -32.0178516232  TIP3      6398            0.0000000000
     41513      6590  TIP3      H1              2.4368293879       33.6163015308      -32.2956618295  TIP3      6398            0.0000000000
     41514      6590  TIP3      H2              1.9462441891       34.5290721252      -31.1845983440  TIP3      6398            0.0000000000
     41515      6591  TIP3      OH2            19.3691182854       34.9592481976      -26.4132741214  TIP3      6399            0.0000000000
     41516      6591  TIP3      H1             19.5047850832       34.1918452475      -26.9906707974  TIP3      6399            0.0000000000
     41517      6591  TIP3      H2             18.4124517019       34.8760051816      -26.2092848741  TIP3      6399            0.0000000000
     41518      6592  TIP3      OH2             9.8224549967       34.8887650538      -27.5897296107  TIP3      6400            0.0000000000
     41519      6592  TIP3      H1             10.4627683835       34.7065553208      -26.8874636925  TIP3      6400            0.0000000000
     41520      6592  TIP3      H2              9.0470454746       34.3897741026      -27.2387723966  TIP3      6400            0.0000000000
     41521      6593  TIP3      OH2            16.6715423034       26.2909884202      -25.8686266744  TIP3      6401            0.0000000000
     41522      6593  TIP3      H1             15.9671213741       26.5388183101      -26.5042293462  TIP3      6401            0.0000000000
     41523      6593  TIP3      H2             16.8268643106       25.3582635133      -26.0902981123  TIP3      6401            0.0000000000
     41524      6594  TIP3      OH2             4.0780621404       32.6982593054      -27.7674241659  TIP3      6402            0.0000000000
     41525      6594  TIP3      H1              3.7785160485       33.4139103811      -27.1740745641  TIP3      6402            0.0000000000
     41526      6594  TIP3      H2              3.2062080520       32.4246531916      -28.1337683764  TIP3      6402            0.0000000000
     41527      6595  TIP3      OH2             6.5416035921       21.4180708746      -31.9740348790  TIP3      6403            0.0000000000
     41528      6595  TIP3      H1              5.6227289234       21.4330654712      -32.3082089821  TIP3      6403            0.0000000000
     41529      6595  TIP3      H2              6.4098513765       21.8671567889      -31.1119799514  TIP3      6403            0.0000000000
     41530      6596  TIP3      OH2            11.4680307141       20.8407623139      -28.6438894965  TIP3      6404            0.0000000000
     41531      6596  TIP3      H1             11.7475586323       20.3801201370      -27.8308110788  TIP3      6404            0.0000000000
     41532      6596  TIP3      H2             10.4965489298       20.9206681178      -28.5325576749  TIP3      6404            0.0000000000
     41533      6597  TIP3      OH2            14.1946644676       24.7965334775      -27.7598653923  TIP3      6405            0.0000000000
     41534      6597  TIP3      H1             13.6132275460       24.4942134684      -27.0120425646  TIP3      6405            0.0000000000
     41535      6597  TIP3      H2             14.3547975938       25.7358732938      -27.5289915399  TIP3      6405            0.0000000000
     41536      6598  TIP3      OH2            15.0985062688       29.8297657676      -41.4960303288  TIP3      6406            0.0000000000
     41537      6598  TIP3      H1             15.1601197546       30.1158195028      -42.4185558499  TIP3      6406            0.0000000000
     41538      6598  TIP3      H2             15.8987947264       30.2852879653      -41.1764799663  TIP3      6406            0.0000000000
     41539      6599  TIP3      OH2            10.9104778559       24.0298045540      -41.2856301714  TIP3      6407            0.0000000000
     41540      6599  TIP3      H1             10.5634637416       24.0092813668      -40.3762091932  TIP3      6407            0.0000000000
     41541      6599  TIP3      H2             10.7651909533       23.1029618486      -41.5176406162  TIP3      6407            0.0000000000
     41542      6600  TIP3      OH2             6.6620417708       26.0738747026      -30.4735076604  TIP3      6408            0.0000000000
     41543      6600  TIP3      H1              5.7626604447       26.0900636320      -30.0916988235  TIP3      6408            0.0000000000
     41544      6600  TIP3      H2              6.6889977545       26.9912785261      -30.8518355664  TIP3      6408            0.0000000000
     41545      6601  TIP3      OH2             6.4529939952       25.9774119500      -35.8804492205  TIP3      6409            0.0000000000
     41546      6601  TIP3      H1              5.4902679833       25.9874329137      -36.0603503930  TIP3      6409            0.0000000000
     41547      6601  TIP3      H2              6.8036530755       25.7826189399      -36.7774255130  TIP3      6409            0.0000000000
     41548      6602  TIP3      OH2            12.2220499917       26.7733599179      -37.1245030120  TIP3      6410            0.0000000000
     41549      6602  TIP3      H1             11.9515938502       27.6393185708      -37.5194796673  TIP3      6410            0.0000000000
     41550      6602  TIP3      H2             12.7621848852       26.4000246208      -37.8502595997  TIP3      6410            0.0000000000
     41551      6603  TIP3      OH2            10.5076426162       27.1203215119      -25.0883632499  TIP3      6411            0.0000000000
     41552      6603  TIP3      H1             10.3473386843       26.2207705031      -24.7116026230  TIP3      6411            0.0000000000
     41553      6603  TIP3      H2             11.4682162017       27.2078358022      -25.0152840975  TIP3      6411            0.0000000000
     41554      6604  TIP3      OH2            13.2022634301       26.4668934783      -33.9420731311  TIP3      6412            0.0000000000
     41555      6604  TIP3      H1             12.9772577959       27.3197191272      -34.3403488873  TIP3      6412            0.0000000000
     41556      6604  TIP3      H2             13.0732757719       25.8561706139      -34.6900860813  TIP3      6412            0.0000000000
     41557      6605  TIP3      OH2             4.2262062707       26.2185877703      -29.4142210588  TIP3      6413            0.0000000000
     41558      6605  TIP3      H1              4.4729378180       26.6284619198      -28.5750241131  TIP3      6413            0.0000000000
     41559      6605  TIP3      H2              3.8386399332       25.3766036027      -29.0980700077  TIP3      6413            0.0000000000
     41560      6606  TIP3      OH2             7.5115638906       23.9206707574      -41.6926039766  TIP3      6414            0.0000000000
     41561      6606  TIP3      H1              7.1736623988       23.3005462712      -41.0166219402  TIP3      6414            0.0000000000
     41562      6606  TIP3      H2              7.3017359687       24.7783529467      -41.2655067881  TIP3      6414            0.0000000000
     41563      6607  TIP3      OH2             1.0061640090       23.4516017614      -34.8556576701  TIP3      6415            0.0000000000
     41564      6607  TIP3      H1              1.7565245998       23.3533596907      -34.2487084919  TIP3      6415            0.0000000000
     41565      6607  TIP3      H2              1.3455476237       24.0092002903      -35.5646719301  TIP3      6415            0.0000000000
     41566      6608  TIP3      OH2             1.9443367223       24.1721095589      -39.8255966597  TIP3      6416            0.0000000000
     41567      6608  TIP3      H1              2.5828254451       24.5573020783      -40.4547088789  TIP3      6416            0.0000000000
     41568      6608  TIP3      H2              1.5204025226       25.0088419880      -39.5579303120  TIP3      6416            0.0000000000
     41569      6609  TIP3      OH2            12.1474649639       27.7809681947      -29.7254945244  TIP3      6417            0.0000000000
     41570      6609  TIP3      H1             12.7377285622       27.1039799559      -30.1156149743  TIP3      6417            0.0000000000
     41571      6609  TIP3      H2             11.5892630219       27.2650856346      -29.0953556324  TIP3      6417            0.0000000000
     41572      6610  TIP3      OH2             9.4824997727       23.6445399192      -34.8157856398  TIP3      6418            0.0000000000
     41573      6610  TIP3      H1              8.5334232079       23.6682879443      -34.5956427535  TIP3      6418            0.0000000000
     41574      6610  TIP3      H2              9.9029514384       23.3058676038      -34.0014745991  TIP3      6418            0.0000000000
     41575      6611  TIP3      OH2             3.8254329175       25.2490441829      -35.7341538052  TIP3      6419            0.0000000000
     41576      6611  TIP3      H1              3.0564315853       25.5117336845      -36.2887265318  TIP3      6419            0.0000000000
     41577      6611  TIP3      H2              4.1267462316       24.4197197491      -36.1724862340  TIP3      6419            0.0000000000
     41578      6612  TIP3      OH2             6.9527488153       25.5532149340      -38.4754456898  TIP3      6420            0.0000000000
     41579      6612  TIP3      H1              7.9027398076       25.6874728237      -38.3127213022  TIP3      6420            0.0000000000
     41580      6612  TIP3      H2              6.8354705310       26.0216916623      -39.3367050771  TIP3      6420            0.0000000000
     41581      6613  TIP3      OH2            13.9476002940       23.1459024594      -31.9622417991  TIP3      6421            0.0000000000
     41582      6613  TIP3      H1             13.2559707793       23.1318172854      -31.2639207540  TIP3      6421            0.0000000000
     41583      6613  TIP3      H2             13.6297530726       22.4483137993      -32.5799437579  TIP3      6421            0.0000000000
     41584      6614  TIP3      OH2             6.8160519659       26.3972473689      -40.9641576879  TIP3      6422            0.0000000000
     41585      6614  TIP3      H1              6.1315580150       26.3887516347      -41.6593399429  TIP3      6422            0.0000000000
     41586      6614  TIP3      H2              7.5364483805       26.9080414900      -41.4037676342  TIP3      6422            0.0000000000
     41587      6615  TIP3      OH2             4.7884066486       31.1520989350      -25.1240438062  TIP3      6423            0.0000000000
     41588      6615  TIP3      H1              4.8366423448       32.0968166623      -25.3011252105  TIP3      6423            0.0000000000
     41589      6615  TIP3      H2              3.8373067277       31.0351067252      -24.9249690957  TIP3      6423            0.0000000000
     41590      6616  TIP3      OH2            10.0235701769       26.4320084305      -33.4168335643  TIP3      6424            0.0000000000
     41591      6616  TIP3      H1             10.9549903250       26.2667744281      -33.6292501235  TIP3      6424            0.0000000000
     41592      6616  TIP3      H2              9.7973602248       25.6554680273      -32.8761364292  TIP3      6424            0.0000000000
     41593      6617  TIP3      OH2             4.8433305629       22.8571684950      -36.5384469130  TIP3      6425            0.0000000000
     41594      6617  TIP3      H1              4.3937934237       22.1399226061      -36.0265033702  TIP3      6425            0.0000000000
     41595      6617  TIP3      H2              5.1973006597       22.3630806730      -37.2985627023  TIP3      6425            0.0000000000
     41596      6618  TIP3      OH2             8.9833508951       24.7413400779      -30.7716967900  TIP3      6426            0.0000000000
     41597      6618  TIP3      H1              8.1332333356       25.2333988819      -30.7906972486  TIP3      6426            0.0000000000
     41598      6618  TIP3      H2              9.5155324980       25.3102965249      -30.2034105863  TIP3      6426            0.0000000000
     41599      6619  TIP3      OH2             9.7256215789       31.1207184847      -38.6967163868  TIP3      6427            0.0000000000
     41600      6619  TIP3      H1              8.9436070532       30.6763793870      -39.0899076796  TIP3      6427            0.0000000000
     41601      6619  TIP3      H2              9.3651605312       31.3433072287      -37.7995379747  TIP3      6427            0.0000000000
     41602      6620  TIP3      OH2            17.0103852667       30.8307701779      -29.9565919152  TIP3      6428            0.0000000000
     41603      6620  TIP3      H1             17.5839321202       31.3537764333      -30.5736421271  TIP3      6428            0.0000000000
     41604      6620  TIP3      H2             16.2146063138       30.7318383978      -30.5082903202  TIP3      6428            0.0000000000
     41605      6621  TIP3      OH2            13.5585931842       24.0821384134      -40.7406131989  TIP3      6429            0.0000000000
     41606      6621  TIP3      H1             12.7399983080       24.3864234046      -41.1785731619  TIP3      6429            0.0000000000
     41607      6621  TIP3      H2             13.7785721345       24.8671138503      -40.2006933505  TIP3      6429            0.0000000000
     41608      6622  TIP3      OH2            11.2936275815       32.2017566220      -27.7812233059  TIP3      6430            0.0000000000
     41609      6622  TIP3      H1             11.4322891874       31.3638393247      -27.3084657188  TIP3      6430            0.0000000000
     41610      6622  TIP3      H2             10.3617751119       32.3697472687      -27.5788917390  TIP3      6430            0.0000000000
     41611      6623  TIP3      OH2            14.1413576597       26.1665178074      -39.0410561761  TIP3      6431            0.0000000000
     41612      6623  TIP3      H1             14.7905221854       25.9266067474      -38.3475599654  TIP3      6431            0.0000000000
     41613      6623  TIP3      H2             14.4275016608       27.0704484696      -39.2445007862  TIP3      6431            0.0000000000
     41614      6624  TIP3      OH2             4.8023314067       30.6834466893      -33.3771937185  TIP3      6432            0.0000000000
     41615      6624  TIP3      H1              5.3395778723       30.6666058465      -34.1930921363  TIP3      6432            0.0000000000
     41616      6624  TIP3      H2              5.1238759689       29.9134287115      -32.8850092510  TIP3      6432            0.0000000000
     41617      6625  TIP3      OH2            11.8445411922       32.5406806009      -39.5911933463  TIP3      6433            0.0000000000
     41618      6625  TIP3      H1             11.3808774730       33.4019697969      -39.5703106429  TIP3      6433            0.0000000000
     41619      6625  TIP3      H2             11.1080565499       31.9472890899      -39.3209827141  TIP3      6433            0.0000000000
     41620      6626  TIP3      OH2             1.9932873296       28.8700068345      -27.9531288053  TIP3      6434            0.0000000000
     41621      6626  TIP3      H1              1.7452986680       28.3369845599      -27.1773029914  TIP3      6434            0.0000000000
     41622      6626  TIP3      H2              1.3284998727       28.5931633545      -28.6075173616  TIP3      6434            0.0000000000
     41623      6627  TIP3      OH2             8.9859139777       29.0597989754      -26.1460528721  TIP3      6435            0.0000000000
     41624      6627  TIP3      H1              8.8475891414       28.6150465095      -27.0120482579  TIP3      6435            0.0000000000
     41625      6627  TIP3      H2              9.5969539999       28.4395186351      -25.6931839429  TIP3      6435            0.0000000000
     41626      6628  TIP3      OH2            13.5729714136       34.6108697300      -28.1099710100  TIP3      6436            0.0000000000
     41627      6628  TIP3      H1             12.9197870079       33.9074439157      -28.2356146057  TIP3      6436            0.0000000000
     41628      6628  TIP3      H2             13.5407917695       34.7070918138      -27.1268164168  TIP3      6436            0.0000000000
     41629      6629  TIP3      OH2            19.0016005736       26.0072731907      -39.1000840413  TIP3      6437            0.0000000000
     41630      6629  TIP3      H1             18.3683246267       25.8908836270      -39.8316069933  TIP3      6437            0.0000000000
     41631      6629  TIP3      H2             19.2375690463       26.9505450839      -39.2699604668  TIP3      6437            0.0000000000
     41632      6630  TIP3      OH2            19.1348356565       32.0481145832      -26.6383479969  TIP3      6438            0.0000000000
     41633      6630  TIP3      H1             18.2245783598       32.3657592683      -26.8240055683  TIP3      6438            0.0000000000
     41634      6630  TIP3      H2             19.5114087415       31.9158422440      -27.5415859562  TIP3      6438            0.0000000000
     41635      6631  TIP3      OH2            17.6875752233       34.2241687835      -38.5688784610  TIP3      6439            0.0000000000
     41636      6631  TIP3      H1             16.8947971274       33.6793578567      -38.5156544379  TIP3      6439            0.0000000000
     41637      6631  TIP3      H2             17.6333674384       34.6507983885      -39.4383399325  TIP3      6439            0.0000000000
     41638      6632  TIP3      OH2            14.5756644851       29.9113712825      -31.7244357769  TIP3      6440            0.0000000000
     41639      6632  TIP3      H1             13.7744734263       29.5449298145      -32.1366169585  TIP3      6440            0.0000000000
     41640      6632  TIP3      H2             15.2842018487       29.4302791101      -32.1835767367  TIP3      6440            0.0000000000
     41641      6633  TIP3      OH2             7.3002660003       33.9880369230      -35.7656622601  TIP3      6441            0.0000000000
     41642      6633  TIP3      H1              7.4007471528       34.9306508282      -35.9659892653  TIP3      6441            0.0000000000
     41643      6633  TIP3      H2              6.6648950559       33.6693532036      -36.4296447686  TIP3      6441            0.0000000000
     41644      6634  TIP3      OH2             3.1815626817       29.1611612572      -41.4210264037  TIP3      6442            0.0000000000
     41645      6634  TIP3      H1              3.5854699653       29.3993822213      -40.5590235571  TIP3      6442            0.0000000000
     41646      6634  TIP3      H2              2.2442715976       29.1843824031      -41.1787835669  TIP3      6442            0.0000000000
     41647      6635  TIP3      OH2             8.6588644081       31.6297640285      -36.2472895546  TIP3      6443            0.0000000000
     41648      6635  TIP3      H1              8.2959228595       32.5231357576      -36.0998818293  TIP3      6443            0.0000000000
     41649      6635  TIP3      H2              8.0811248964       31.1064439336      -35.6676520582  TIP3      6443            0.0000000000
     41650      6636  TIP3      OH2             8.8400889894       35.0722251063      -30.0733689087  TIP3      6444            0.0000000000
     41651      6636  TIP3      H1              9.2383329686       35.9495753498      -30.0101649629  TIP3      6444            0.0000000000
     41652      6636  TIP3      H2              9.1710517186       34.6871193664      -29.2406474426  TIP3      6444            0.0000000000
     41653      6637  TIP3      OH2             6.7630964519      -36.7375014925      -37.2092887852  TIP3      6445            0.0000000000
     41654      6637  TIP3      H1              6.1176992745      -37.0865792021      -36.5871955784  TIP3      6445            0.0000000000
     41655      6637  TIP3      H2              7.4226691709      -36.3804400909      -36.5633149910  TIP3      6445            0.0000000000
     41656      6638  TIP3      OH2            12.3425110702       31.7901111081      -30.2943694260  TIP3      6446            0.0000000000
     41657      6638  TIP3      H1             12.0217018683       31.7935851681      -29.3693781774  TIP3      6446            0.0000000000
     41658      6638  TIP3      H2             12.5350876249       30.8471490394      -30.4199459512  TIP3      6446            0.0000000000
     41659      6639  TIP3      OH2            14.9695325589       32.8803245811      -40.5635784290  TIP3      6447            0.0000000000
     41660      6639  TIP3      H1             15.3096071911       32.3551592662      -39.8045708360  TIP3      6447            0.0000000000
     41661      6639  TIP3      H2             14.0216783166       32.6618427629      -40.5233322504  TIP3      6447            0.0000000000
     41662      6640  TIP3      OH2            15.5119458222       36.5286357523      -27.7674394189  TIP3      6448            0.0000000000
     41663      6640  TIP3      H1             14.8398914007       35.8113247956      -27.7919955634  TIP3      6448            0.0000000000
     41664      6640  TIP3      H2             15.2516529697       37.0646038062      -28.5331619412  TIP3      6448            0.0000000000
     41665      6641  TIP3      OH2             3.7101424297       23.8195151106      -28.0249713034  TIP3      6449            0.0000000000
     41666      6641  TIP3      H1              3.2308189974       24.2447460286      -27.2935728001  TIP3      6449            0.0000000000
     41667      6641  TIP3      H2              3.4953329949       22.8913620459      -27.8290371273  TIP3      6449            0.0000000000
     41668      6642  TIP3      OH2            15.8889506637       31.3228711746      -38.4824496479  TIP3      6450            0.0000000000
     41669      6642  TIP3      H1             15.6185730317       30.5082319221      -38.0177189384  TIP3      6450            0.0000000000
     41670      6642  TIP3      H2             16.8577478381       31.2392715402      -38.3750924452  TIP3      6450            0.0000000000
     41671      6643  TIP3      OH2             3.0493011600       34.9788661305      -29.5006080630  TIP3      6451            0.0000000000
     41672      6643  TIP3      H1              3.9480401792       34.6323685930      -29.4478551209  TIP3      6451            0.0000000000
     41673      6643  TIP3      H2              3.2033364634       35.9344698600      -29.5137022243  TIP3      6451            0.0000000000
     41674      6644  TIP3      OH2             7.7684409450       33.7825440400      -39.8571889982  TIP3      6452            0.0000000000
     41675      6644  TIP3      H1              8.3887438394       33.0634847583      -39.6710095603  TIP3      6452            0.0000000000
     41676      6644  TIP3      H2              8.2766625497       34.5908343504      -39.6572444230  TIP3      6452            0.0000000000
     41677      6645  TIP3      OH2             4.0691043384       30.7408171115      -39.3610014787  TIP3      6453            0.0000000000
     41678      6645  TIP3      H1              3.6228103097       31.2588543892      -38.6619487257  TIP3      6453            0.0000000000
     41679      6645  TIP3      H2              4.4893611298       31.4681905311      -39.8782178738  TIP3      6453            0.0000000000
     41680      6646  TIP3      OH2            12.4053245622       23.4983726687      -29.4698977811  TIP3      6454            0.0000000000
     41681      6646  TIP3      H1             13.0206462494       24.0516504481      -28.9507708023  TIP3      6454            0.0000000000
     41682      6646  TIP3      H2             12.2176693882       22.7440284665      -28.8790361357  TIP3      6454            0.0000000000
     41683      6647  TIP3      OH2            12.7221617496       23.3220892507      -37.7803482051  TIP3      6455            0.0000000000
     41684      6647  TIP3      H1             13.2084673030       23.7426621082      -38.5033372750  TIP3      6455            0.0000000000
     41685      6647  TIP3      H2             13.1231305204       23.7881358108      -37.0131918239  TIP3      6455            0.0000000000
     41686      6648  TIP3      OH2            10.4066836237       34.9763204357      -39.3587984957  TIP3      6456            0.0000000000
     41687      6648  TIP3      H1              9.6528111267       35.5933423561      -39.4053757475  TIP3      6456            0.0000000000
     41688      6648  TIP3      H2             11.0004160738       35.4145084008      -40.0107614124  TIP3      6456            0.0000000000
     41689      6649  TIP3      OH2             9.8575022829       25.0568577862      -37.1430780273  TIP3      6457            0.0000000000
     41690      6649  TIP3      H1             10.6363175947       25.6536624924      -37.1130380092  TIP3      6457            0.0000000000
     41691      6649  TIP3      H2              9.8399010317       24.6474985467      -36.2536081802  TIP3      6457            0.0000000000
     41692      6650  TIP3      OH2            10.8321943074       26.2411290196      -27.8602070867  TIP3      6458            0.0000000000
     41693      6650  TIP3      H1             10.7228019808       26.3983234915      -26.9043046369  TIP3      6458            0.0000000000
     41694      6650  TIP3      H2             11.2079319751       25.3551272760      -27.8820117315  TIP3      6458            0.0000000000
     41695      6651  TIP3      OH2            10.7384225561       21.7782110782      -36.7500155479  TIP3      6459            0.0000000000
     41696      6651  TIP3      H1             10.3373145259       22.3892402162      -36.0965570928  TIP3      6459            0.0000000000
     41697      6651  TIP3      H2             11.5413542738       22.3007726860      -37.0271104535  TIP3      6459            0.0000000000
     41698      6652  TIP3      OH2             8.0940340609      -36.8310125663      -39.5770743029  TIP3      6460            0.0000000000
     41699      6652  TIP3      H1              8.5092224089      -35.9580888125      -39.5103588416  TIP3      6460            0.0000000000
     41700      6652  TIP3      H2              7.4816225417      -36.8374235342      -38.8078221481  TIP3      6460            0.0000000000
     41701      6653  TIP3      OH2             6.4343743492       22.9927828284      -39.3599901926  TIP3      6461            0.0000000000
     41702      6653  TIP3      H1              6.3830874534       23.8456366097      -38.8766670572  TIP3      6461            0.0000000000
     41703      6653  TIP3      H2              7.3021907545       22.6813109856      -39.0506269141  TIP3      6461            0.0000000000
     41704      6654  TIP3      OH2            16.7096211359       23.8305928822      -26.9875679265  TIP3      6462            0.0000000000
     41705      6654  TIP3      H1             15.7444930925       23.8449016064      -27.1501332813  TIP3      6462            0.0000000000
     41706      6654  TIP3      H2             17.0283656167       23.7729361988      -27.9061973940  TIP3      6462            0.0000000000
     41707      6655  TIP3      OH2            15.7028644701       27.5701569904      -33.4424256487  TIP3      6463            0.0000000000
     41708      6655  TIP3      H1             14.8956420090       27.0782547537      -33.2137494949  TIP3      6463            0.0000000000
     41709      6655  TIP3      H2             16.3510678163       27.1096215843      -32.8612893616  TIP3      6463            0.0000000000
     41710      6656  TIP3      OH2             4.9107737541       32.9857953498      -40.7153808965  TIP3      6464            0.0000000000
     41711      6656  TIP3      H1              5.4641381712       33.7673295068      -40.5474172952  TIP3      6464            0.0000000000
     41712      6656  TIP3      H2              5.4980863262       32.5082834857      -41.3301794065  TIP3      6464            0.0000000000
     41713      6657  TIP3      OH2             3.0298884460       26.3458859781      -41.0537485984  TIP3      6465            0.0000000000
     41714      6657  TIP3      H1              3.3468524098       27.2497272132      -41.2379376155  TIP3      6465            0.0000000000
     41715      6657  TIP3      H2              2.4212908209       26.2052891218      -41.7911346661  TIP3      6465            0.0000000000
     41716      6658  TIP3      OH2             3.9433817829       20.9421365680      -32.7137233887  TIP3      6466            0.0000000000
     41717      6658  TIP3      H1              3.8987819151       20.7881162507      -33.6810767979  TIP3      6466            0.0000000000
     41718      6658  TIP3      H2              3.7252631778       20.0313667297      -32.3962790434  TIP3      6466            0.0000000000
     41719      6659  TIP3      OH2             3.2151553257       34.9688673808      -35.8972909974  TIP3      6467            0.0000000000
     41720      6659  TIP3      H1              2.2840741980       34.7099407505      -35.9121845083  TIP3      6467            0.0000000000
     41721      6659  TIP3      H2              3.2202374023       35.4120332562      -36.7791788418  TIP3      6467            0.0000000000
     41722      6660  TIP3      OH2             7.1854650015       36.2926635091      -22.9068788946  TIP3      6468            0.0000000000
     41723      6660  TIP3      H1              7.2981769789       35.3348429757      -22.8137791815  TIP3      6468            0.0000000000
     41724      6660  TIP3      H2              7.1219490332       36.4119223610      -23.8685751077  TIP3      6468            0.0000000000
     41725      6661  TIP3      OH2            11.5310441519       36.0969795487      -41.5179735846  TIP3      6469            0.0000000000
     41726      6661  TIP3      H1             10.9549899352       35.5623349318      -42.0957061450  TIP3      6469            0.0000000000
     41727      6661  TIP3      H2             12.1631966275       36.4703785999      -42.1432290706  TIP3      6469            0.0000000000
     41728      6662  TIP3      OH2            13.7026745614       34.9381896330      -25.4173883014  TIP3      6470            0.0000000000
     41729      6662  TIP3      H1             13.0567636989       34.5734427137      -24.7911866967  TIP3      6470            0.0000000000
     41730      6662  TIP3      H2             14.5206811349       34.8077108356      -24.9039606915  TIP3      6470            0.0000000000
     41731      6663  TIP3      OH2            15.7563265355       35.2810230928      -42.0803084562  TIP3      6471            0.0000000000
     41732      6663  TIP3      H1             15.5293974863       34.4707790994      -41.5727692641  TIP3      6471            0.0000000000
     41733      6663  TIP3      H2             16.6976253040       35.1229475542      -42.2757247879  TIP3      6471            0.0000000000
     41734      6664  TIP3      OH2             1.9218722551       31.0997494125      -24.6906656248  TIP3      6472            0.0000000000
     41735      6664  TIP3      H1              1.5528698805       30.2008895173      -24.7004437726  TIP3      6472            0.0000000000
     41736      6664  TIP3      H2              1.4243893818       31.5407281355      -25.4214477508  TIP3      6472            0.0000000000
     41737      6665  TIP3      OH2             6.6216125271       31.0854897377      -41.8394390665  TIP3      6473            0.0000000000
     41738      6665  TIP3      H1              6.9252102915       30.5893490831      -41.0487663013  TIP3      6473            0.0000000000
     41739      6665  TIP3      H2              7.1769316488       30.6696149191      -42.5375867835  TIP3      6473            0.0000000000
     41740      6666  TIP3      OH2            14.4347958428       31.0602464347      -27.5012952925  TIP3      6474            0.0000000000
     41741      6666  TIP3      H1             15.2943241206       31.5337502822      -27.4284903019  TIP3      6474            0.0000000000
     41742      6666  TIP3      H2             13.8084902087       31.7859444252      -27.3555941389  TIP3      6474            0.0000000000
     41743      6667  TIP3      OH2             3.0845496968       28.2911545058      -24.9946715966  TIP3      6475            0.0000000000
     41744      6667  TIP3      H1              3.8456476986       27.6918547883      -25.0131219836  TIP3      6475            0.0000000000
     41745      6667  TIP3      H2              3.2731882909       28.8424744184      -24.2226617233  TIP3      6475            0.0000000000
     41746      6668  TIP3      OH2             7.7220166239       29.6331021698      -39.8750374756  TIP3      6476            0.0000000000
     41747      6668  TIP3      H1              7.0874638775       29.0875651138      -39.3699256040  TIP3      6476            0.0000000000
     41748      6668  TIP3      H2              8.1517545343       28.9685037589      -40.4513115471  TIP3      6476            0.0000000000
     41749      6669  TIP3      OH2             7.0703821106       27.5701029091      -27.4718921765  TIP3      6477            0.0000000000
     41750      6669  TIP3      H1              6.2268159780       28.0454204391      -27.6042020710  TIP3      6477            0.0000000000
     41751      6669  TIP3      H2              7.5757040670       27.9717989445      -28.2062158065  TIP3      6477            0.0000000000
     41752      6670  TIP3      OH2             8.7822129598       27.9317915962      -41.9062382380  TIP3      6478            0.0000000000
     41753      6670  TIP3      H1              9.0830705836       28.0131831984      -42.8275730812  TIP3      6478            0.0000000000
     41754      6670  TIP3      H2              9.6688020274       27.8974001907      -41.4561614722  TIP3      6478            0.0000000000
     41755      6671  TIP3      OH2            12.0426598750       30.3842237081      -24.8604637807  TIP3      6479            0.0000000000
     41756      6671  TIP3      H1             12.9634947924       30.5529931394      -24.6247166850  TIP3      6479            0.0000000000
     41757      6671  TIP3      H2             11.6304249180       30.4156820355      -23.9882716068  TIP3      6479            0.0000000000
     41758      6672  TIP3      OH2            17.9055516341       30.6087235450       42.3424675997  TIP3      6480            0.0000000000
     41759      6672  TIP3      H1             17.5823085392       30.8863983643       41.4782642294  TIP3      6480            0.0000000000
     41760      6672  TIP3      H2             18.2169159872       31.4401975935       42.7283225790  TIP3      6480            0.0000000000
     41761      6673  TIP3      OH2             7.8375336081       25.1172891601      -26.8488963838  TIP3      6481            0.0000000000
     41762      6673  TIP3      H1              7.9066407128       24.5705728564      -27.6604175462  TIP3      6481            0.0000000000
     41763      6673  TIP3      H2              7.6549141486       26.0200959908      -27.2095868271  TIP3      6481            0.0000000000
     41764      6674  TIP3      OH2             7.8706321620       23.2169858399      -28.8652087439  TIP3      6482            0.0000000000
     41765      6674  TIP3      H1              8.3198958933       23.5783372598      -29.6658198918  TIP3      6482            0.0000000000
     41766      6674  TIP3      H2              6.9298428089       23.3247125549      -29.1067611720  TIP3      6482            0.0000000000
     41767      6675  TIP3      OH2             8.9763551422       29.0730996044      -28.8536616074  TIP3      6483            0.0000000000
     41768      6675  TIP3      H1              9.7952073635       29.1414098905      -29.3672614983  TIP3      6483            0.0000000000
     41769      6675  TIP3      H2              8.4226584877       29.7432590373      -29.3059884933  TIP3      6483            0.0000000000
     41770      6676  TIP3      OH2            13.7488423764       25.9755882613      -24.2296646311  TIP3      6484            0.0000000000
     41771      6676  TIP3      H1             13.1983019559       25.5274030783      -23.5710773769  TIP3      6484            0.0000000000
     41772      6676  TIP3      H2             13.6913691431       26.9014816453      -23.9685064263  TIP3      6484            0.0000000000
     41773      6677  TIP3      OH2            15.0542910437       29.3968701442      -25.5114381282  TIP3      6485            0.0000000000
     41774      6677  TIP3      H1             14.6537952858       29.9416901276      -26.2298167508  TIP3      6485            0.0000000000
     41775      6677  TIP3      H2             16.0122478032       29.4253106891      -25.7456870595  TIP3      6485            0.0000000000
     41776      6678  TIP3      OH2             5.5501193613       26.4215269839      -24.5872963453  TIP3      6486            0.0000000000
     41777      6678  TIP3      H1              5.1427337685       25.6528028050      -25.0399023562  TIP3      6486            0.0000000000
     41778      6678  TIP3      H2              6.4026608787       26.5258495350      -25.0416586582  TIP3      6486            0.0000000000
     41779      6679  TIP3      OH2             8.7409426541       20.6683954101      -29.0885479420  TIP3      6487            0.0000000000
     41780      6679  TIP3      H1              8.4009971656       21.5793565027      -28.9579186273  TIP3      6487            0.0000000000
     41781      6679  TIP3      H2              7.9262009777       20.1840688858      -29.2786983900  TIP3      6487            0.0000000000
     41782      6680  TIP3      OH2             9.8825751589       24.5290593461      -24.7813533323  TIP3      6488            0.0000000000
     41783      6680  TIP3      H1              9.3204483928       24.4249234836      -23.9718299147  TIP3      6488            0.0000000000
     41784      6680  TIP3      H2              9.1840025852       24.5993592377      -25.4620826335  TIP3      6488            0.0000000000
     41785      6681  TIP3      OH2            12.3531035773       24.0638773056      -25.9784715322  TIP3      6489            0.0000000000
     41786      6681  TIP3      H1             11.4647926909       24.2263142656      -25.5997534446  TIP3      6489            0.0000000000
     41787      6681  TIP3      H2             12.7527856334       23.6036825399      -25.2072383978  TIP3      6489            0.0000000000
     41788      6682  TIP3      OH2            13.6404033525       22.6216979998      -23.9806826713  TIP3      6490            0.0000000000
     41789      6682  TIP3      H1             13.8579957402       21.6598557024      -23.9975970181  TIP3      6490            0.0000000000
     41790      6682  TIP3      H2             14.1348477022       22.9343548583      -23.2130136109  TIP3      6490            0.0000000000
     41791      6683  TIP3      OH2             3.9406807512       24.0519305853      -24.8833102384  TIP3      6491            0.0000000000
     41792      6683  TIP3      H1              3.7440062235       23.1742866173      -25.2562875631  TIP3      6491            0.0000000000
     41793      6683  TIP3      H2              3.9079416786       23.8548463374      -23.9174067872  TIP3      6491            0.0000000000
     41794      6684  TIP3      OH2             8.6452073041       20.1104960307      -26.1525786607  TIP3      6492            0.0000000000
     41795      6684  TIP3      H1              9.3501938528       19.4518727372      -26.0306407996  TIP3      6492            0.0000000000
     41796      6684  TIP3      H2              8.6072263744       20.1376941887      -27.1234905761  TIP3      6492            0.0000000000
     41797      6685  TIP3      OH2             8.6108308403       21.4498426366      -23.1686953553  TIP3      6493            0.0000000000
     41798      6685  TIP3      H1              8.7708313324       21.1582905906      -24.0788932025  TIP3      6493            0.0000000000
     41799      6685  TIP3      H2              8.1696623597       22.3075292022      -23.3317403620  TIP3      6493            0.0000000000
     41800      6686  TIP3      OH2             2.0599253015       32.7016780170      -41.1752368214  TIP3      6494            0.0000000000
     41801      6686  TIP3      H1              3.0357740865       32.7117392901      -41.1250044869  TIP3      6494            0.0000000000
     41802      6686  TIP3      H2              1.9243993980       32.9023817916      -42.1204179228  TIP3      6494            0.0000000000
     41803      6687  TIP3      OH2             1.4335739277       36.9906452402      -34.0576144032  TIP3      6495            0.0000000000
     41804      6687  TIP3      H1              0.9321370963       36.1525699576      -34.1319295122  TIP3      6495            0.0000000000
     41805      6687  TIP3      H2              1.5342258675       37.0603266652      -33.0934225083  TIP3      6495            0.0000000000
     41806      6688  TIP3      OH2            18.7042786657       30.7709368110      -38.4227243438  TIP3      6496            0.0000000000
     41807      6688  TIP3      H1             19.3761486913       31.4275618725      -38.1416995794  TIP3      6496            0.0000000000
     41808      6688  TIP3      H2             18.6308144613       30.2170525843      -37.6125709710  TIP3      6496            0.0000000000
     41809      6689  TIP3      OH2            18.7629758719       28.9453324751      -36.4038612447  TIP3      6497            0.0000000000
     41810      6689  TIP3      H1             18.0374457748       28.3700426196      -36.0574441727  TIP3      6497            0.0000000000
     41811      6689  TIP3      H2             19.3131130658       29.0308750883      -35.5952767196  TIP3      6497            0.0000000000
     41812      6690  TIP3      OH2            18.6480342220       31.9144510309      -31.7088895520  TIP3      6498            0.0000000000
     41813      6690  TIP3      H1             19.2876688130       31.2074695790      -31.9392715392  TIP3      6498            0.0000000000
     41814      6690  TIP3      H2             19.1711873143       32.7230643320      -31.8689914553  TIP3      6498            0.0000000000
     41815      6691  TIP3      OH2            17.6028747520       34.7930150252      -29.2506724661  TIP3      6499            0.0000000000
     41816      6691  TIP3      H1             16.8818146895       35.2294520540      -28.7794155990  TIP3      6499            0.0000000000
     41817      6691  TIP3      H2             17.1860093557       34.6163410284      -30.1242777521  TIP3      6499            0.0000000000
     41818      6692  TIP3      OH2            19.0754390859       28.6150092757      -40.1831025372  TIP3      6500            0.0000000000
     41819      6692  TIP3      H1             18.3677640643       28.8373013924      -40.8055570712  TIP3      6500            0.0000000000
     41820      6692  TIP3      H2             19.0155071816       29.3852204869      -39.5748699796  TIP3      6500            0.0000000000
     41821      6693  TIP3      OH2            16.9284934000       26.0495689684      -41.4840177317  TIP3      6501            0.0000000000
     41822      6693  TIP3      H1             17.7380038547       26.3902760640      -41.9080815047  TIP3      6501            0.0000000000
     41823      6693  TIP3      H2             16.9299439172       25.1408613858      -41.8541802500  TIP3      6501            0.0000000000
     41824      6694  TIP3      OH2            16.8595075747       27.2512048045      -35.7626268701  TIP3      6502            0.0000000000
     41825      6694  TIP3      H1             16.6032030962       26.3435340947      -36.0018005995  TIP3      6502            0.0000000000
     41826      6694  TIP3      H2             16.4946039358       27.3277779892      -34.8479170872  TIP3      6502            0.0000000000
     41827      6695  TIP3      OH2             1.6814661640       30.0652772395      -31.9274612265  TIP3      6503            0.0000000000
     41828      6695  TIP3      H1              1.5155346010       29.5301419258      -32.7313548509  TIP3      6503            0.0000000000
     41829      6695  TIP3      H2              2.6256797483       29.8558549629      -31.7338165857  TIP3      6503            0.0000000000
     41830      6696  TIP3      OH2            17.6226558734       29.6891185042      -26.2665665687  TIP3      6504            0.0000000000
     41831      6696  TIP3      H1             18.1721527544       28.8962661640      -26.0456611519  TIP3      6504            0.0000000000
     41832      6696  TIP3      H2             18.3078254280       30.3788100423      -26.3606519215  TIP3      6504            0.0000000000
     41833      6697  TIP3      OH2            19.1202491193       27.6310877617      -25.7456247008  TIP3      6505            0.0000000000
     41834      6697  TIP3      H1             18.4359565446       26.9448525599      -25.8531471679  TIP3      6505            0.0000000000
     41835      6697  TIP3      H2             19.8913103366       27.1331042523      -25.4136008193  TIP3      6505            0.0000000000
     41836      6698  TIP3      OH2            16.8205200126       23.5870959788      -42.6366969339  TIP3      6506            0.0000000000
     41837      6698  TIP3      H1             17.3976111189       23.1108664809      -41.9995775474  TIP3      6506            0.0000000000
     41838      6698  TIP3      H2             15.9244503613       23.4798613562      -42.2667970081  TIP3      6506            0.0000000000
     41839      6699  TIP3      OH2            16.0858878318       25.3272539808      -37.3848413161  TIP3      6507            0.0000000000
     41840      6699  TIP3      H1             16.4898802970       24.4778391515      -37.0701635289  TIP3      6507            0.0000000000
     41841      6699  TIP3      H2             16.6635357988       25.5015124534      -38.1473033792  TIP3      6507            0.0000000000
     41842      6700  TIP3      OH2            17.2854337861       26.0747321634      -31.8440688045  TIP3      6508            0.0000000000
     41843      6700  TIP3      H1             18.2653504080       25.9712287341      -31.8253764149  TIP3      6508            0.0000000000
     41844      6700  TIP3      H2             17.1233413341       26.0800075808      -30.8871075204  TIP3      6508            0.0000000000
     41845      6701  TIP3      OH2            17.4793747847       26.6363116929      -29.0963018157  TIP3      6509            0.0000000000
     41846      6701  TIP3      H1             16.6333380060       26.8333389718      -28.6417863321  TIP3      6509            0.0000000000
     41847      6701  TIP3      H2             17.8091477347       27.5182477792      -29.3929048898  TIP3      6509            0.0000000000
     41848      6702  TIP3      OH2             1.7241535920       25.1573659996      -25.6916216011  TIP3      6510            0.0000000000
     41849      6702  TIP3      H1              2.5093477915       24.9605670494      -25.1384665202  TIP3      6510            0.0000000000
     41850      6702  TIP3      H2              1.2636822674       24.2934512438      -25.7156886657  TIP3      6510            0.0000000000
     41851      6703  TIP3      OH2            19.2878273926       20.6303407912      -24.2632476050  TIP3      6511            0.0000000000
     41852      6703  TIP3      H1             19.5732593507       19.6963166981      -24.3387440824  TIP3      6511            0.0000000000
     41853      6703  TIP3      H2             19.7577601067       20.8865542770      -23.4481761875  TIP3      6511            0.0000000000
     41854      6704  TIP3      OH2            17.0552995878       22.8243580138      -37.0629276384  TIP3      6512            0.0000000000
     41855      6704  TIP3      H1             17.4285522423       22.2057406966      -36.3973183040  TIP3      6512            0.0000000000
     41856      6704  TIP3      H2             16.6044586259       22.2188571622      -37.6745474827  TIP3      6512            0.0000000000
     41857      6705  TIP3      OH2             2.6171464574       23.1764911085      -32.0689356176  TIP3      6513            0.0000000000
     41858      6705  TIP3      H1              3.0949714730       22.3250777810      -32.2055945978  TIP3      6513            0.0000000000
     41859      6705  TIP3      H2              3.3301233028       23.8407303932      -32.1085712436  TIP3      6513            0.0000000000
     41860      6706  TIP3      OH2             1.1453294123       26.3112297249      -31.5065680497  TIP3      6514            0.0000000000
     41861      6706  TIP3      H1              1.6073232006       26.0713439914      -32.3382766953  TIP3      6514            0.0000000000
     41862      6706  TIP3      H2              1.4405391746       27.2238620822      -31.4036295886  TIP3      6514            0.0000000000
     41863      6707  TIP3      OH2            18.8210767472       23.1264812685      -25.6705643069  TIP3      6515            0.0000000000
     41864      6707  TIP3      H1             17.9540749895       23.1243499798      -26.1357584101  TIP3      6515            0.0000000000
     41865      6707  TIP3      H2             19.0469663817       22.1831454390      -25.6933660806  TIP3      6515            0.0000000000
     41866      6708  TIP3      OH2            18.8065421698       22.6633121349      -40.9541275917  TIP3      6516            0.0000000000
     41867      6708  TIP3      H1             19.2629506089       22.1506571946      -41.6405862429  TIP3      6516            0.0000000000
     41868      6708  TIP3      H2             19.5384343182       23.2580067730      -40.6830832274  TIP3      6516            0.0000000000
     41869      6709  TIP3      OH2             1.1931891884       22.3532308728      -37.9245889084  TIP3      6517            0.0000000000
     41870      6709  TIP3      H1              0.3871224400       22.7010602060      -37.5219027187  TIP3      6517            0.0000000000
     41871      6709  TIP3      H2              1.3144787234       22.9748921363      -38.6737759735  TIP3      6517            0.0000000000
     41872      6710  TIP3      OH2             1.1561832868       21.1544953936      -29.3467761234  TIP3      6518            0.0000000000
     41873      6710  TIP3      H1              0.4820239049       20.7426380513      -28.7739372945  TIP3      6518            0.0000000000
     41874      6710  TIP3      H2              0.6474094704       21.8426461841      -29.8053116496  TIP3      6518            0.0000000000
     41875      6711  TIP3      OH2             3.1248260478       34.2895779968      -25.6400969525  TIP3      6519            0.0000000000
     41876      6711  TIP3      H1              2.2404873001       34.7023164748      -25.6138935701  TIP3      6519            0.0000000000
     41877      6711  TIP3      H2              3.2760337170       34.1466535103      -24.6831201659  TIP3      6519            0.0000000000
     41878      6712  TIP3      OH2             6.3294643729       35.4210466433      -28.9576022755  TIP3      6520            0.0000000000
     41879      6712  TIP3      H1              6.1722134331       35.8299066015      -29.8152708834  TIP3      6520            0.0000000000
     41880      6712  TIP3      H2              7.3026522494       35.4376581523      -28.9173245922  TIP3      6520            0.0000000000
     41881      6713  TIP3      OH2            18.0495060791       20.6128125864      -27.5056816632  TIP3      6521            0.0000000000
     41882      6713  TIP3      H1             17.2688462437       20.9484305854      -27.9602190481  TIP3      6521            0.0000000000
     41883      6713  TIP3      H2             18.1698592299       19.7455417451      -27.9587631764  TIP3      6521            0.0000000000
     41884      6714  TIP3      OH2             5.3817694151       36.1698540934      -34.3771444819  TIP3      6522            0.0000000000
     41885      6714  TIP3      H1              5.1124094484       35.2564628484      -34.5439570104  TIP3      6522            0.0000000000
     41886      6714  TIP3      H2              5.9257593165       36.0535249030      -33.5724432091  TIP3      6522            0.0000000000
     41887      6715  TIP3      OH2             7.1402867345       35.6252370047      -32.1121747422  TIP3      6523            0.0000000000
     41888      6715  TIP3      H1              7.0520724024       34.7662639447      -32.5699324825  TIP3      6523            0.0000000000
     41889      6715  TIP3      H2              7.6692670711       35.3283752911      -31.3327119796  TIP3      6523            0.0000000000
     41890      6716  TIP3      OH2            11.1005771186       21.8834404520      -33.2428579086  TIP3      6524            0.0000000000
     41891      6716  TIP3      H1             10.2527451581       21.4839938507      -32.9493114065  TIP3      6524            0.0000000000
     41892      6716  TIP3      H2             11.4303965779       21.2227615557      -33.8583445943  TIP3      6524            0.0000000000
     41893      6717  TIP3      OH2            16.8789930508       20.2613911451      -33.3025102102  TIP3      6525            0.0000000000
     41894      6717  TIP3      H1             17.5347200984       20.8194514357      -33.7766230789  TIP3      6525            0.0000000000
     41895      6717  TIP3      H2             16.0442726748       20.6644668212      -33.6086216302  TIP3      6525            0.0000000000
     41896      6718  TIP3      OH2            18.5134405003       21.2254002465      -35.2835163080  TIP3      6526            0.0000000000
     41897      6718  TIP3      H1             19.1972812416       20.7137276114      -35.7764927022  TIP3      6526            0.0000000000
     41898      6718  TIP3      H2             19.0128563631       22.0630627597      -35.1042060176  TIP3      6526            0.0000000000
     41899      6719  TIP3      OH2             3.8510857420       20.5727331673      -35.4727769534  TIP3      6527            0.0000000000
     41900      6719  TIP3      H1              2.9791533576       20.4059870754      -35.8681536918  TIP3      6527            0.0000000000
     41901      6719  TIP3      H2              4.2633281392       19.6865487931      -35.5919352055  TIP3      6527            0.0000000000
     41902      6720  TIP3      OH2             2.4265507307       20.4893369612      -39.8725826372  TIP3      6528            0.0000000000
     41903      6720  TIP3      H1              2.9828817664       21.1212685539      -40.3706012100  TIP3      6528            0.0000000000
     41904      6720  TIP3      H2              2.0090791559       21.0384408297      -39.1739901991  TIP3      6528            0.0000000000
     41905      6721  TIP3      OH2             8.1018317673       20.2128195385      -35.6073534017  TIP3      6529            0.0000000000
     41906      6721  TIP3      H1              8.9859486813       20.1542345235      -36.0064419953  TIP3      6529            0.0000000000
     41907      6721  TIP3      H2              8.2691617987       20.6868055038      -34.7783221009  TIP3      6529            0.0000000000
     41908      6722  TIP3      OH2            14.1600798320       20.5808325985      -34.3865887658  TIP3      6530            0.0000000000
     41909      6722  TIP3      H1             13.9387911219       20.7028325809      -35.3163362360  TIP3      6530            0.0000000000
     41910      6722  TIP3      H2             13.5795714743       19.8279999364      -34.1356328066  TIP3      6530            0.0000000000
     41911      6723  TIP3      OH2            15.2517982024       20.6977616907      -38.9088398137  TIP3      6531            0.0000000000
     41912      6723  TIP3      H1             14.6369712528       20.5975133844      -39.6573961177  TIP3      6531            0.0000000000
     41913      6723  TIP3      H2             14.9162451972       20.0041325498      -38.2997262850  TIP3      6531            0.0000000000
     41914      6724  TIP3      OH2             2.3089242162       36.2560711132      -38.0241850128  TIP3      6532            0.0000000000
     41915      6724  TIP3      H1              1.4506596180       36.2346294135      -38.4790020501  TIP3      6532            0.0000000000
     41916      6724  TIP3      H2              2.4673778075       37.2131420307      -38.0123694670  TIP3      6532            0.0000000000
     41917      6725  TIP3      OH2             4.1770235072       21.8385794740      -41.3346301547  TIP3      6533            0.0000000000
     41918      6725  TIP3      H1              5.0356545162       21.3880028547      -41.3356519903  TIP3      6533            0.0000000000
     41919      6725  TIP3      H2              4.4004954496       22.6980230128      -40.9437219474  TIP3      6533            0.0000000000
     41920      6726  TIP3      OH2             9.4593557033       23.0527298859      -38.8892324688  TIP3      6534            0.0000000000
     41921      6726  TIP3      H1              9.8580432783       22.3980607406      -38.2954331014  TIP3      6534            0.0000000000
     41922      6726  TIP3      H2              9.6377697009       23.8600830766      -38.3547361605  TIP3      6534            0.0000000000
     41923      6727  TIP3      OH2             3.5238174554       21.2405094973      -26.1846992432  TIP3      6535            0.0000000000
     41924      6727  TIP3      H1              2.9223885421       20.4860842164      -26.0284384467  TIP3      6535            0.0000000000
     41925      6727  TIP3      H2              4.2270204679       21.0798185224      -25.5232937749  TIP3      6535            0.0000000000
     41926      6728  TIP3      OH2             5.3766211406       20.5463566773      -24.1436863260  TIP3      6536            0.0000000000
     41927      6728  TIP3      H1              6.2721446327       20.4648131567      -24.5255641486  TIP3      6536            0.0000000000
     41928      6728  TIP3      H2              5.1938923823       19.6062109282      -23.9555860406  TIP3      6536            0.0000000000
     41929      6729  TIP3      OH2            14.3374921315       20.0119879832      -24.0198471893  TIP3      6537            0.0000000000
     41930      6729  TIP3      H1             14.4361143482       19.1894624866      -23.5147099386  TIP3      6537            0.0000000000
     41931      6729  TIP3      H2             15.1454048887       19.9538777455      -24.5822298004  TIP3      6537            0.0000000000
     41932      6730  TIP3      OH2            16.7820240101       35.5637851816      -25.4407843212  TIP3      6538            0.0000000000
     41933      6730  TIP3      H1             16.1784337233       35.9768300888      -26.0897993517  TIP3      6538            0.0000000000
     41934      6730  TIP3      H2             17.2362388605       36.3280833127      -25.0613893222  TIP3      6538            0.0000000000
     41935      6731  TIP3      OH2            31.9758458396       29.9330643127      -35.9434028214  TIP3      6539            0.0000000000
     41936      6731  TIP3      H1             31.6405594721       30.8354639166      -36.1666291282  TIP3      6539            0.0000000000
     41937      6731  TIP3      H2             31.3535387250       29.3809407103      -36.4442064614  TIP3      6539            0.0000000000
     41938      6732  TIP3      OH2            30.6834167305       28.7435684086      -32.3884231689  TIP3      6540            0.0000000000
     41939      6732  TIP3      H1             30.6771170065       28.3886605368      -31.4728862006  TIP3      6540            0.0000000000
     41940      6732  TIP3      H2             29.9079221538       28.3258142737      -32.8002212436  TIP3      6540            0.0000000000
     41941      6733  TIP3      OH2            22.7140336436       28.8167819323      -30.7918889691  TIP3      6541            0.0000000000
     41942      6733  TIP3      H1             22.6389289708       28.1594678748      -30.0794071037  TIP3      6541            0.0000000000
     41943      6733  TIP3      H2             23.5207690334       29.2693880930      -30.4955378644  TIP3      6541            0.0000000000
     41944      6734  TIP3      OH2            34.2890481033       31.8666587332      -33.8541858321  TIP3      6542            0.0000000000
     41945      6734  TIP3      H1             33.8869873503       31.0642206898      -33.4700239553  TIP3      6542            0.0000000000
     41946      6734  TIP3      H2             34.2886733093       32.4656002267      -33.0895371841  TIP3      6542            0.0000000000
     41947      6735  TIP3      OH2            24.2326625017       33.4237464612      -32.3518298708  TIP3      6543            0.0000000000
     41948      6735  TIP3      H1             23.8597895611       32.5349304660      -32.4546889438  TIP3      6543            0.0000000000
     41949      6735  TIP3      H2             25.1855419998       33.1891273830      -32.3611879447  TIP3      6543            0.0000000000
     41950      6736  TIP3      OH2            20.5939565374       26.5795306184      -36.8166480597  TIP3      6544            0.0000000000
     41951      6736  TIP3      H1             20.2892163611       27.4792329169      -36.6085712988  TIP3      6544            0.0000000000
     41952      6736  TIP3      H2             19.9650385109       26.3337992107      -37.5193007669  TIP3      6544            0.0000000000
     41953      6737  TIP3      OH2            20.6048415381       28.9604133910      -34.3806564824  TIP3      6545            0.0000000000
     41954      6737  TIP3      H1             20.8404971905       28.0131208134      -34.2476726341  TIP3      6545            0.0000000000
     41955      6737  TIP3      H2             21.4792988597       29.3886872634      -34.3589785437  TIP3      6545            0.0000000000
     41956      6738  TIP3      OH2            28.8585261609       31.0216483781      -31.4184482403  TIP3      6546            0.0000000000
     41957      6738  TIP3      H1             29.0553324868       30.9105168268      -32.3594506598  TIP3      6546            0.0000000000
     41958      6738  TIP3      H2             29.6384903059       31.5331130155      -31.1315676921  TIP3      6546            0.0000000000
     41959      6739  TIP3      OH2            32.3503351050       25.9490972552      -31.1488483424  TIP3      6547            0.0000000000
     41960      6739  TIP3      H1             32.3550694665       25.0146587174      -30.8765928662  TIP3      6547            0.0000000000
     41961      6739  TIP3      H2             32.3207898893       25.8248085323      -32.1155459684  TIP3      6547            0.0000000000
     41962      6740  TIP3      OH2            25.3978549293       23.7807042488      -34.4821875548  TIP3      6548            0.0000000000
     41963      6740  TIP3      H1             25.4972157242       24.5852828964      -35.0362735096  TIP3      6548            0.0000000000
     41964      6740  TIP3      H2             24.9006736396       23.2121598615      -35.1077376373  TIP3      6548            0.0000000000
     41965      6741  TIP3      OH2            32.7749235116       24.3004015764      -35.7317904929  TIP3      6549            0.0000000000
     41966      6741  TIP3      H1             33.4297243593       23.9930731525      -35.0622456774  TIP3      6549            0.0000000000
     41967      6741  TIP3      H2             33.2043997609       25.0826756866      -36.0945225157  TIP3      6549            0.0000000000
     41968      6742  TIP3      OH2            21.5994152508       26.4693751581      -33.5937950365  TIP3      6550            0.0000000000
     41969      6742  TIP3      H1             22.2342799851       26.1840487350      -32.9141445073  TIP3      6550            0.0000000000
     41970      6742  TIP3      H2             22.0007151290       26.0626994044      -34.3935083159  TIP3      6550            0.0000000000
     41971      6743  TIP3      OH2            26.4106818031       28.0732761686      -34.0349263691  TIP3      6551            0.0000000000
     41972      6743  TIP3      H1             27.2880841746       27.7410698855      -33.7475475681  TIP3      6551            0.0000000000
     41973      6743  TIP3      H2             26.1868867020       27.3737872801      -34.6827981421  TIP3      6551            0.0000000000
     41974      6744  TIP3      OH2            24.4297849700       23.0153660003      -30.3627657547  TIP3      6552            0.0000000000
     41975      6744  TIP3      H1             24.0545464348       23.5859690997      -31.0632100069  TIP3      6552            0.0000000000
     41976      6744  TIP3      H2             23.8883902080       23.2846629103      -29.6005304218  TIP3      6552            0.0000000000
     41977      6745  TIP3      OH2            31.1351472872       32.3722957225      -36.8061560947  TIP3      6553            0.0000000000
     41978      6745  TIP3      H1             30.9777478741       32.3012960348      -37.7660358816  TIP3      6553            0.0000000000
     41979      6745  TIP3      H2             31.0565648960       33.3278744145      -36.6765838290  TIP3      6553            0.0000000000
     41980      6746  TIP3      OH2            26.3346529468       30.6032639622      -30.4169521385  TIP3      6554            0.0000000000
     41981      6746  TIP3      H1             25.7954075417       31.3527679082      -30.0613890153  TIP3      6554            0.0000000000
     41982      6746  TIP3      H2             27.0503306143       31.0628345688      -30.9016832852  TIP3      6554            0.0000000000
     41983      6747  TIP3      OH2            34.4196495225       23.9575971750      -33.5680148766  TIP3      6555            0.0000000000
     41984      6747  TIP3      H1             34.3525977596       23.0059618363      -33.4377140380  TIP3      6555            0.0000000000
     41985      6747  TIP3      H2             34.9953354038       24.2301633228      -32.8234269629  TIP3      6555            0.0000000000
     41986      6748  TIP3      OH2            23.8150990547       24.8824020960      -32.1985616287  TIP3      6556            0.0000000000
     41987      6748  TIP3      H1             24.3953640916       25.6001398837      -31.8652072428  TIP3      6556            0.0000000000
     41988      6748  TIP3      H2             24.3447399876       24.5230488544      -32.9365429095  TIP3      6556            0.0000000000
     41989      6749  TIP3      OH2            25.0916113744       32.5910608541      -29.2410773177  TIP3      6557            0.0000000000
     41990      6749  TIP3      H1             25.0836814185       33.5666225008      -29.1762676727  TIP3      6557            0.0000000000
     41991      6749  TIP3      H2             24.2073228136       32.3785686215      -28.8446551481  TIP3      6557            0.0000000000
     41992      6750  TIP3      OH2            20.9959766426       32.5265900526      -38.0021117982  TIP3      6558            0.0000000000
     41993      6750  TIP3      H1             20.8896602937       32.7572687158      -38.9362534116  TIP3      6558            0.0000000000
     41994      6750  TIP3      H2             21.3144907586       33.3478241913      -37.6120535378  TIP3      6558            0.0000000000
     41995      6751  TIP3      OH2            34.9057310779       33.8033118652      -31.5148875139  TIP3      6559            0.0000000000
     41996      6751  TIP3      H1             33.9416268839       33.7619601075      -31.3401729046  TIP3      6559            0.0000000000
     41997      6751  TIP3      H2             34.9504243892       34.7281544934      -31.7856146275  TIP3      6559            0.0000000000
     41998      6752  TIP3      OH2            35.0069765829       22.7168110704      -30.4811544527  TIP3      6560            0.0000000000
     41999      6752  TIP3      H1             34.0622107717       22.9385883577      -30.6569665458  TIP3      6560            0.0000000000
     42000      6752  TIP3      H2             35.4438885347       23.4551673300      -30.9525391872  TIP3      6560            0.0000000000
     42001      6753  TIP3      OH2            27.8695286120       20.5620981009      -32.7198501733  TIP3      6561            0.0000000000
     42002      6753  TIP3      H1             27.5226981618       19.6789355059      -32.9143713866  TIP3      6561            0.0000000000
     42003      6753  TIP3      H2             27.0657545777       20.9849305566      -32.3143173077  TIP3      6561            0.0000000000
     42004      6754  TIP3      OH2            32.8680227285       35.1576641388      -35.4177276264  TIP3      6562            0.0000000000
     42005      6754  TIP3      H1             33.4186940893       34.4008740795      -35.7268679490  TIP3      6562            0.0000000000
     42006      6754  TIP3      H2             33.5442131605       35.8472974206      -35.4171869000  TIP3      6562            0.0000000000
     42007      6755  TIP3      OH2            34.5089919330       33.2469318969      -36.4461205857  TIP3      6563            0.0000000000
     42008      6755  TIP3      H1             34.2057032423       32.6431070399      -37.1494064600  TIP3      6563            0.0000000000
     42009      6755  TIP3      H2             34.5134997119       32.6756952200      -35.6460534409  TIP3      6563            0.0000000000
     42010      6756  TIP3      OH2            35.2214220079       32.4099417933      -27.9496091478  TIP3      6564            0.0000000000
     42011      6756  TIP3      H1             35.5708248539       31.6523981391      -28.4599958303  TIP3      6564            0.0000000000
     42012      6756  TIP3      H2             35.7836826416       33.1365595072      -28.2559385401  TIP3      6564            0.0000000000
     42013      6757  TIP3      OH2            30.3175387079       29.1914426649      -38.2588800155  TIP3      6565            0.0000000000
     42014      6757  TIP3      H1             29.7186178473       29.9449984660      -38.4535289111  TIP3      6565            0.0000000000
     42015      6757  TIP3      H2             31.1583756732       29.4990708086      -38.6700672807  TIP3      6565            0.0000000000
     42016      6758  TIP3      OH2            30.3526695213       28.0533910290      -40.9594079785  TIP3      6566            0.0000000000
     42017      6758  TIP3      H1             30.8803798046       28.3960127712      -40.2161895728  TIP3      6566            0.0000000000
     42018      6758  TIP3      H2             30.9421297067       27.3985865256      -41.3576122404  TIP3      6566            0.0000000000
     42019      6759  TIP3      OH2            34.2494996324       29.4123402201      -37.2022589794  TIP3      6567            0.0000000000
     42020      6759  TIP3      H1             33.5477661815       29.7070565808      -36.5681178338  TIP3      6567            0.0000000000
     42021      6759  TIP3      H2             34.7407905601       28.7512396645      -36.6614768957  TIP3      6567            0.0000000000
     42022      6760  TIP3      OH2            33.3960625353       27.4517955752      -28.0890326372  TIP3      6568            0.0000000000
     42023      6760  TIP3      H1             33.7217821624       28.1389646670      -27.4728944516  TIP3      6568            0.0000000000
     42024      6760  TIP3      H2             32.7269588023       27.9577765871      -28.5904797454  TIP3      6568            0.0000000000
     42025      6761  TIP3      OH2            25.2591468972       29.8979354734      -35.6185308116  TIP3      6569            0.0000000000
     42026      6761  TIP3      H1             25.1488250556       29.4866412964      -36.4968501760  TIP3      6569            0.0000000000
     42027      6761  TIP3      H2             25.7367935564       29.2239259869      -35.0891511516  TIP3      6569            0.0000000000
     42028      6762  TIP3      OH2            26.7592871319       33.1321291244      -32.7712430631  TIP3      6570            0.0000000000
     42029      6762  TIP3      H1             26.9258715593       33.0118430284      -33.7248339161  TIP3      6570            0.0000000000
     42030      6762  TIP3      H2             27.6249189981       33.0518888669      -32.3452237213  TIP3      6570            0.0000000000
     42031      6763  TIP3      OH2            25.4776270591       28.4033738142      -31.5277062783  TIP3      6571            0.0000000000
     42032      6763  TIP3      H1             25.7370336867       28.4407543904      -32.4744291817  TIP3      6571            0.0000000000
     42033      6763  TIP3      H2             25.9608130167       29.1675713031      -31.1312137182  TIP3      6571            0.0000000000
     42034      6764  TIP3      OH2            32.2292056387       34.3933931120      -31.0180500090  TIP3      6572            0.0000000000
     42035      6764  TIP3      H1             31.5343870411       35.0352338551      -30.8478269212  TIP3      6572            0.0000000000
     42036      6764  TIP3      H2             31.8089650085       33.5578869625      -30.7368515313  TIP3      6572            0.0000000000
     42037      6765  TIP3      OH2            26.6680298167       32.5936735532      -26.9261609915  TIP3      6573            0.0000000000
     42038      6765  TIP3      H1             25.9630473196       33.1707665644      -26.5683403364  TIP3      6573            0.0000000000
     42039      6765  TIP3      H2             26.2804067421       32.3708766019      -27.8039511832  TIP3      6573            0.0000000000
     42040      6766  TIP3      OH2            32.6573487071       29.1300998123      -39.3362722223  TIP3      6574            0.0000000000
     42041      6766  TIP3      H1             33.2889318903       29.2425619978      -38.5874082888  TIP3      6574            0.0000000000
     42042      6766  TIP3      H2             33.1830894755       29.4341870283      -40.1084632387  TIP3      6574            0.0000000000
     42043      6767  TIP3      OH2            23.6699316920       29.2339422030      -28.0739870511  TIP3      6575            0.0000000000
     42044      6767  TIP3      H1             23.8237685804       30.0161018538      -27.5184707916  TIP3      6575            0.0000000000
     42045      6767  TIP3      H2             22.8869374787       28.8654496223      -27.6248253286  TIP3      6575            0.0000000000
     42046      6768  TIP3      OH2            30.0150469093       35.5164661407      -35.2116181274  TIP3      6576            0.0000000000
     42047      6768  TIP3      H1             30.9138611623       35.2249039185      -35.4517388703  TIP3      6576            0.0000000000
     42048      6768  TIP3      H2             29.6162741673       35.7196627580      -36.0626658244  TIP3      6576            0.0000000000
     42049      6769  TIP3      OH2            25.0280046774       34.6718994129      -26.2146142604  TIP3      6577            0.0000000000
     42050      6769  TIP3      H1             24.8905949729       34.9320534496      -27.1510830743  TIP3      6577            0.0000000000
     42051      6769  TIP3      H2             24.1157098663       34.4062783112      -25.9711215631  TIP3      6577            0.0000000000
     42052      6770  TIP3      OH2            36.4267048921       20.0937313370      -39.6987246952  TIP3      6578            0.0000000000
     42053      6770  TIP3      H1             35.6482446659       20.1337703803      -39.1145436195  TIP3      6578            0.0000000000
     42054      6770  TIP3      H2             36.0340705607       20.2341299374      -40.5757870960  TIP3      6578            0.0000000000
     42055      6771  TIP3      OH2            24.3808950731       28.7452442048      -38.2420203052  TIP3      6579            0.0000000000
     42056      6771  TIP3      H1             23.9116701599       29.5487140096      -38.5778136299  TIP3      6579            0.0000000000
     42057      6771  TIP3      H2             23.6727988285       28.1068030515      -38.1077524419  TIP3      6579            0.0000000000
     42058      6772  TIP3      OH2            20.6285440807       31.4391721827      -28.7310177603  TIP3      6580            0.0000000000
     42059      6772  TIP3      H1             20.3934217507       31.2778028699      -29.6548201617  TIP3      6580            0.0000000000
     42060      6772  TIP3      H2             20.9788645840       30.5492996527      -28.5046974264  TIP3      6580            0.0000000000
     42061      6773  TIP3      OH2            20.4944372890       34.1707587889      -32.2520391079  TIP3      6581            0.0000000000
     42062      6773  TIP3      H1             21.3277132657       33.7500168368      -32.5024465263  TIP3      6581            0.0000000000
     42063      6773  TIP3      H2             20.7430508210       34.7094877065      -31.4788526203  TIP3      6581            0.0000000000
     42064      6774  TIP3      OH2            28.4848302365       34.6893321489      -27.2342969529  TIP3      6582            0.0000000000
     42065      6774  TIP3      H1             28.9962418784       34.6876632400      -26.4144656949  TIP3      6582            0.0000000000
     42066      6774  TIP3      H2             27.7472587174       34.0727351733      -27.0219176280  TIP3      6582            0.0000000000
     42067      6775  TIP3      OH2            35.0580522693       26.1560818518      -25.5696824944  TIP3      6583            0.0000000000
     42068      6775  TIP3      H1             34.7575802008       26.1783703238      -26.4907406317  TIP3      6583            0.0000000000
     42069      6775  TIP3      H2             36.0152600596       26.0466384464      -25.7365698150  TIP3      6583            0.0000000000
     42070      6776  TIP3      OH2            22.8995011461       32.3892995236      -27.7739469037  TIP3      6584            0.0000000000
     42071      6776  TIP3      H1             22.8059655048       31.9356163661      -26.9097148266  TIP3      6584            0.0000000000
     42072      6776  TIP3      H2             22.0003814331       32.2398408991      -28.1525416471  TIP3      6584            0.0000000000
     42073      6777  TIP3      OH2            25.4512857645       21.3498843057      -32.0692689988  TIP3      6585            0.0000000000
     42074      6777  TIP3      H1             24.5587434821       21.3793780085      -32.4737418160  TIP3      6585            0.0000000000
     42075      6777  TIP3      H2             25.2697446936       21.8571249797      -31.2436521690  TIP3      6585            0.0000000000
     42076      6778  TIP3      OH2            30.2882295922       20.9684609635      -28.5177471386  TIP3      6586            0.0000000000
     42077      6778  TIP3      H1             30.6610962307       20.3995130189      -27.8235984698  TIP3      6586            0.0000000000
     42078      6778  TIP3      H2             29.3237647486       20.8630125482      -28.4039705925  TIP3      6586            0.0000000000
     42079      6779  TIP3      OH2            33.2515802342       24.8379177470      -27.6065178771  TIP3      6587            0.0000000000
     42080      6779  TIP3      H1             32.7903512272       24.5611456991      -26.7893555567  TIP3      6587            0.0000000000
     42081      6779  TIP3      H2             33.1070222329       25.8048489163      -27.6566096735  TIP3      6587            0.0000000000
     42082      6780  TIP3      OH2            34.1267065939       29.9531905728      -41.4443250482  TIP3      6588            0.0000000000
     42083      6780  TIP3      H1             34.1948911547       30.0958891314      -42.4007716040  TIP3      6588            0.0000000000
     42084      6780  TIP3      H2             34.3854304319       30.8396526458      -41.1190794930  TIP3      6588            0.0000000000
     42085      6781  TIP3      OH2            29.7009487051       23.9251578588      -41.0800673284  TIP3      6589            0.0000000000
     42086      6781  TIP3      H1             29.2898970462       23.8073250145      -40.2003618778  TIP3      6589            0.0000000000
     42087      6781  TIP3      H2             29.7016367622       23.0167268700      -41.3950135276  TIP3      6589            0.0000000000
     42088      6782  TIP3      OH2            25.6598853658       26.0241318853      -30.4949587468  TIP3      6590            0.0000000000
     42089      6782  TIP3      H1             24.7959216157       26.1507980380      -30.0472716423  TIP3      6590            0.0000000000
     42090      6782  TIP3      H2             25.7475009708       26.9228398029      -30.8903911791  TIP3      6590            0.0000000000
     42091      6783  TIP3      OH2            25.5415012660       26.0287043123      -35.9863162867  TIP3      6591            0.0000000000
     42092      6783  TIP3      H1             24.5819511001       26.1171484308      -36.1134555587  TIP3      6591            0.0000000000
     42093      6783  TIP3      H2             25.8621012929       25.9773561955      -36.9177890692  TIP3      6591            0.0000000000
     42094      6784  TIP3      OH2            31.2450971556       27.1246625979      -36.8446933159  TIP3      6592            0.0000000000
     42095      6784  TIP3      H1             30.8124466697       27.7840555610      -37.4337430793  TIP3      6592            0.0000000000
     42096      6784  TIP3      H2             31.8746564608       26.7114503593      -37.4771879515  TIP3      6592            0.0000000000
     42097      6785  TIP3      OH2            30.4374758605       26.7337680585      -25.9712511914  TIP3      6593            0.0000000000
     42098      6785  TIP3      H1             29.8992575017       26.0517357381      -25.4926915439  TIP3      6593            0.0000000000
     42099      6785  TIP3      H2             31.1924846178       26.8680384657      -25.3690846793  TIP3      6593            0.0000000000
     42100      6786  TIP3      OH2            31.9506187959       26.5458020800      -33.9419618233  TIP3      6594            0.0000000000
     42101      6786  TIP3      H1             31.7121024527       27.3532375509      -34.4375237579  TIP3      6594            0.0000000000
     42102      6786  TIP3      H2             31.8543627121       25.8780152482      -34.6395181814  TIP3      6594            0.0000000000
     42103      6787  TIP3      OH2            23.0607389998       26.1998661449      -29.4763642898  TIP3      6595            0.0000000000
     42104      6787  TIP3      H1             23.2988868284       26.4539707919      -28.5732481375  TIP3      6595            0.0000000000
     42105      6787  TIP3      H2             22.6443151332       25.3373897802      -29.3034225732  TIP3      6595            0.0000000000
     42106      6788  TIP3      OH2            26.3726019913       23.9736536548      -41.6641381245  TIP3      6596            0.0000000000
     42107      6788  TIP3      H1             25.9818430670       23.3763850959      -40.9886415888  TIP3      6596            0.0000000000
     42108      6788  TIP3      H2             26.1493558044       24.8520918206      -41.2967184345  TIP3      6596            0.0000000000
     42109      6789  TIP3      OH2            20.0227039090       23.3943621925      -34.8394248419  TIP3      6597            0.0000000000
     42110      6789  TIP3      H1             20.7175932151       23.4278171378      -34.1585236294  TIP3      6597            0.0000000000
     42111      6789  TIP3      H2             20.3652309821       23.9553345968      -35.5499143815  TIP3      6597            0.0000000000
     42112      6790  TIP3      OH2            20.8441985819       24.1604550407      -39.8731541311  TIP3      6598            0.0000000000
     42113      6790  TIP3      H1             21.4674429497       24.6345627009      -40.4608442974  TIP3      6598            0.0000000000
     42114      6790  TIP3      H2             20.2968676962       24.9149643153      -39.5875050615  TIP3      6598            0.0000000000
     42115      6791  TIP3      OH2            31.1994119352       28.0107364626      -29.7619637211  TIP3      6599            0.0000000000
     42116      6791  TIP3      H1             31.7804247084       27.3365119347      -30.1836699436  TIP3      6599            0.0000000000
     42117      6791  TIP3      H2             30.6012649115       27.4279343122      -29.2387056020  TIP3      6599            0.0000000000
     42118      6792  TIP3      OH2            28.4077660232       23.7439817239      -34.8042766714  TIP3      6600            0.0000000000
     42119      6792  TIP3      H1             27.4940151043       23.6798674078      -34.4745031782  TIP3      6600            0.0000000000
     42120      6792  TIP3      H2             28.9515724686       23.5051182546      -34.0289471615  TIP3      6600            0.0000000000
     42121      6793  TIP3      OH2            22.8174931626       25.2450312179      -35.8014595388  TIP3      6601            0.0000000000
     42122      6793  TIP3      H1             22.0582084657       25.5201052755      -36.3496079307  TIP3      6601            0.0000000000
     42123      6793  TIP3      H2             23.0633742273       24.3842702748      -36.1980395274  TIP3      6601            0.0000000000
     42124      6794  TIP3      OH2            26.2605511180       25.6833977663      -38.5324682275  TIP3      6602            0.0000000000
     42125      6794  TIP3      H1             27.2250712518       25.7077060059      -38.5554911004  TIP3      6602            0.0000000000
     42126      6794  TIP3      H2             26.0106390165       26.1575349284      -39.3617123997  TIP3      6602            0.0000000000
     42127      6795  TIP3      OH2            32.3345806576       23.0325692556      -31.5327275766  TIP3      6603            0.0000000000
     42128      6795  TIP3      H1             31.6121585366       22.8586804480      -30.9011516668  TIP3      6603            0.0000000000
     42129      6795  TIP3      H2             31.9123799174       22.7273773067      -32.3550817515  TIP3      6603            0.0000000000
     42130      6796  TIP3      OH2            25.6437140589       26.5410927180      -40.9541173383  TIP3      6604            0.0000000000
     42131      6796  TIP3      H1             24.9667522168       26.5370849417      -41.6498496464  TIP3      6604            0.0000000000
     42132      6796  TIP3      H2             26.3660582674       27.0541480984      -41.3871419791  TIP3      6604            0.0000000000
     42133      6797  TIP3      OH2            23.3650494513       30.8270086805      -25.6306446625  TIP3      6605            0.0000000000
     42134      6797  TIP3      H1             24.0805681979       31.2876649356      -25.1228348369  TIP3      6605            0.0000000000
     42135      6797  TIP3      H2             22.6350810080       30.8070831995      -24.9831882336  TIP3      6605            0.0000000000
     42136      6798  TIP3      OH2            28.6346440582       26.6139624253      -33.2351866314  TIP3      6606            0.0000000000
     42137      6798  TIP3      H1             29.5534586588       26.3318574756      -33.4119435407  TIP3      6606            0.0000000000
     42138      6798  TIP3      H2             28.2575223012       25.8549593640      -32.7713316796  TIP3      6606            0.0000000000
     42139      6799  TIP3      OH2            23.8486637390       22.6573994552      -36.3928524133  TIP3      6607            0.0000000000
     42140      6799  TIP3      H1             23.1944163110       22.0852153901      -35.9522971154  TIP3      6607            0.0000000000
     42141      6799  TIP3      H2             24.2709856074       22.0134224439      -36.9787740260  TIP3      6607            0.0000000000
     42142      6800  TIP3      OH2            28.0405941559       24.6085393094      -30.7240014585  TIP3      6608            0.0000000000
     42143      6800  TIP3      H1             27.2488804898       25.1869000977      -30.6779569560  TIP3      6608            0.0000000000
     42144      6800  TIP3      H2             28.6319368202       25.0974701871      -30.1254917467  TIP3      6608            0.0000000000
     42145      6801  TIP3      OH2            28.6723801159       31.1780686259      -38.5288177008  TIP3      6609            0.0000000000
     42146      6801  TIP3      H1             27.9339876761       30.6319916504      -38.8906519661  TIP3      6609            0.0000000000
     42147      6801  TIP3      H2             28.2925458522       31.4384895241      -37.6547650779  TIP3      6609            0.0000000000
     42148      6802  TIP3      OH2            35.5215185081       30.3964908941      -29.7906610223  TIP3      6610            0.0000000000
     42149      6802  TIP3      H1             35.9440613535       30.1388140017      -30.6348551803  TIP3      6610            0.0000000000
     42150      6802  TIP3      H2             34.6027388282       30.4895152339      -30.1147762269  TIP3      6610            0.0000000000
     42151      6803  TIP3      OH2            32.3164353476       24.1621528859      -40.5541561174  TIP3      6611            0.0000000000
     42152      6803  TIP3      H1             31.3638389826       24.1507685559      -40.7700413994  TIP3      6611            0.0000000000
     42153      6803  TIP3      H2             32.4924923189       25.1079473981      -40.5739066047  TIP3      6611            0.0000000000
     42154      6804  TIP3      OH2            30.2843279494       32.1224130919      -27.4260390067  TIP3      6612            0.0000000000
     42155      6804  TIP3      H1             30.1641065152       31.6242471083      -26.6053316831  TIP3      6612            0.0000000000
     42156      6804  TIP3      H2             30.1023828114       33.0261991768      -27.1282886968  TIP3      6612            0.0000000000
     42157      6805  TIP3      OH2            33.0560724662       26.3615641977      -38.6910692585  TIP3      6613            0.0000000000
     42158      6805  TIP3      H1             33.8637094341       25.8629341983      -38.4358494376  TIP3      6613            0.0000000000
     42159      6805  TIP3      H2             33.4185923177       27.1553181812      -39.0974664950  TIP3      6613            0.0000000000
     42160      6806  TIP3      OH2            23.6680659465       30.5717539343      -33.3449540178  TIP3      6614            0.0000000000
     42161      6806  TIP3      H1             24.2214785948       30.6487887847      -34.1491585625  TIP3      6614            0.0000000000
     42162      6806  TIP3      H2             24.1173138309       29.8700357618      -32.8419191867  TIP3      6614            0.0000000000
     42163      6807  TIP3      OH2            30.5712497918       32.7086039413      -39.4847194020  TIP3      6615            0.0000000000
     42164      6807  TIP3      H1             30.1079117367       33.5692228323      -39.4139621922  TIP3      6615            0.0000000000
     42165      6807  TIP3      H2             29.8747762459       32.0990439088      -39.1650539579  TIP3      6615            0.0000000000
     42166      6808  TIP3      OH2            20.6065023357       28.9047828477      -27.7341121777  TIP3      6616            0.0000000000
     42167      6808  TIP3      H1             20.3974787519       28.4208199927      -26.9039667572  TIP3      6616            0.0000000000
     42168      6808  TIP3      H2             19.9866539969       28.4949265645      -28.3549530536  TIP3      6616            0.0000000000
     42169      6809  TIP3      OH2            27.9512148021       28.3785963785      -26.0599584230  TIP3      6617            0.0000000000
     42170      6809  TIP3      H1             27.3293452208       28.2289383267      -26.7883548202  TIP3      6617            0.0000000000
     42171      6809  TIP3      H2             28.6161912145       27.6863303364      -26.2267960885  TIP3      6617            0.0000000000
     42172      6810  TIP3      OH2            32.2427797552       34.8887943183      -27.5539872439  TIP3      6618            0.0000000000
     42173      6810  TIP3      H1             32.0265154989       34.0540236452      -27.9909902158  TIP3      6618            0.0000000000
     42174      6810  TIP3      H2             32.1203718402       34.6599366461      -26.5959965639  TIP3      6618            0.0000000000
     42175      6811  TIP3      OH2            36.1013880987       34.9207497143      -38.7753504063  TIP3      6619            0.0000000000
     42176      6811  TIP3      H1             35.7869740176       34.3484572751      -38.0640625048  TIP3      6619            0.0000000000
     42177      6811  TIP3      H2             36.0413479999       34.3383563037      -39.5456085525  TIP3      6619            0.0000000000
     42178      6812  TIP3      OH2            33.1578644558       29.8721300001      -31.7595625634  TIP3      6620            0.0000000000
     42179      6812  TIP3      H1             32.2781778982       29.5487955921      -32.0460082574  TIP3      6620            0.0000000000
     42180      6812  TIP3      H2             33.7263367809       29.2407742365      -32.2364052005  TIP3      6620            0.0000000000
     42181      6813  TIP3      OH2            25.9652721520       33.9582961496      -35.6432613369  TIP3      6621            0.0000000000
     42182      6813  TIP3      H1             26.3149214314       34.7939675646      -35.9789499177  TIP3      6621            0.0000000000
     42183      6813  TIP3      H2             25.1072801905       33.8920594468      -36.0821245958  TIP3      6621            0.0000000000
     42184      6814  TIP3      OH2            22.0605781278       29.0216397366      -41.4068062550  TIP3      6622            0.0000000000
     42185      6814  TIP3      H1             22.4721815289       29.4466256443      -40.6244947059  TIP3      6622            0.0000000000
     42186      6814  TIP3      H2             21.1222637833       29.0208701953      -41.1504092619  TIP3      6622            0.0000000000
     42187      6815  TIP3      OH2            27.3996782822       31.6803576009      -36.1825253839  TIP3      6623            0.0000000000
     42188      6815  TIP3      H1             26.8799891583       32.5017437492      -36.0958427715  TIP3      6623            0.0000000000
     42189      6815  TIP3      H2             26.8137323519       31.0053312541      -35.7930809851  TIP3      6623            0.0000000000
     42190      6816  TIP3      OH2            27.8931550693       35.1003269906      -29.7889614894  TIP3      6624            0.0000000000
     42191      6816  TIP3      H1             28.0504166610       36.0432231591      -29.9750115110  TIP3      6624            0.0000000000
     42192      6816  TIP3      H2             28.3004459569       35.0145429029      -28.8921854389  TIP3      6624            0.0000000000
     42193      6817  TIP3      OH2            25.6026418358       36.7699004049      -37.1643842151  TIP3      6625            0.0000000000
     42194      6817  TIP3      H1             24.9507751071       36.4509442836      -36.5297769054  TIP3      6625            0.0000000000
     42195      6817  TIP3      H2             26.2733728589       37.1118117374      -36.5272560323  TIP3      6625            0.0000000000
     42196      6818  TIP3      OH2            31.1628223234       31.7884823556      -30.2953490840  TIP3      6626            0.0000000000
     42197      6818  TIP3      H1             30.8217910235       31.3949958376      -29.4669400315  TIP3      6626            0.0000000000
     42198      6818  TIP3      H2             31.6430278618       31.0242996269      -30.6660115601  TIP3      6626            0.0000000000
     42199      6819  TIP3      OH2            34.0296445139       32.7929652948      -40.8110953527  TIP3      6627            0.0000000000
     42200      6819  TIP3      H1             33.9900992882       32.3787142561      -39.9204780170  TIP3      6627            0.0000000000
     42201      6819  TIP3      H2             33.0934514344       32.7964814974      -41.0596517772  TIP3      6627            0.0000000000
     42202      6820  TIP3      OH2            34.4708019060       36.3385821117      -28.2110103586  TIP3      6628            0.0000000000
     42203      6820  TIP3      H1             33.5456909440       36.0249077679      -28.0637891593  TIP3      6628            0.0000000000
     42204      6820  TIP3      H2             34.3659753140       37.2968290097      -28.2181075708  TIP3      6628            0.0000000000
     42205      6821  TIP3      OH2            22.7564209135       23.7825612130      -28.0081401696  TIP3      6629            0.0000000000
     42206      6821  TIP3      H1             22.1673919279       24.0534468731      -27.2873395012  TIP3      6629            0.0000000000
     42207      6821  TIP3      H2             22.8593068447       22.8402119608      -27.7952714870  TIP3      6629            0.0000000000
     42208      6822  TIP3      OH2            34.7341314022       31.5317349365      -38.6383251068  TIP3      6630            0.0000000000
     42209      6822  TIP3      H1             34.5548420210       30.7153079312      -38.1128160053  TIP3      6630            0.0000000000
     42210      6822  TIP3      H2             35.6991091980       31.5922966812      -38.5581250205  TIP3      6630            0.0000000000
     42211      6823  TIP3      OH2            21.9119788310       35.0160055034      -29.6777991241  TIP3      6631            0.0000000000
     42212      6823  TIP3      H1             22.6845672519       34.6906723833      -29.2142820801  TIP3      6631            0.0000000000
     42213      6823  TIP3      H2             21.8227460350       35.9367379599      -29.3715024893  TIP3      6631            0.0000000000
     42214      6824  TIP3      OH2            26.6418011982       33.7751214757      -39.8741185194  TIP3      6632            0.0000000000
     42215      6824  TIP3      H1             27.1880041192       33.0230671139      -39.6148966691  TIP3      6632            0.0000000000
     42216      6824  TIP3      H2             27.2017146203       34.5542605800      -39.6855087945  TIP3      6632            0.0000000000
     42217      6825  TIP3      OH2            22.9478117337       30.7711811930      -39.4025266019  TIP3      6633            0.0000000000
     42218      6825  TIP3      H1             22.3831159198       31.2528312894      -38.7583963691  TIP3      6633            0.0000000000
     42219      6825  TIP3      H2             23.3584515094       31.5199574446      -39.8783475274  TIP3      6633            0.0000000000
     42220      6826  TIP3      OH2            30.7680890562       23.5967898445      -28.8239442330  TIP3      6634            0.0000000000
     42221      6826  TIP3      H1             31.5175747971       23.7011105786      -28.2133688655  TIP3      6634            0.0000000000
     42222      6826  TIP3      H2             30.5884343706       22.6394999832      -28.6840810970  TIP3      6634            0.0000000000
     42223      6827  TIP3      OH2            31.6630473579       23.1171511777      -37.8254669357  TIP3      6635            0.0000000000
     42224      6827  TIP3      H1             32.0076263152       23.7337209785      -38.4923334513  TIP3      6635            0.0000000000
     42225      6827  TIP3      H2             32.2989584614       23.2535742867      -37.0923007548  TIP3      6635            0.0000000000
     42226      6828  TIP3      OH2            29.4171987604       35.1194393809      -39.0203720150  TIP3      6636            0.0000000000
     42227      6828  TIP3      H1             28.7212568090       35.7745502987      -38.8601588628  TIP3      6636            0.0000000000
     42228      6828  TIP3      H2             29.8447401230       35.4960515459      -39.8212553260  TIP3      6636            0.0000000000
     42229      6829  TIP3      OH2            29.0780404316       24.8575949255      -37.2881721725  TIP3      6637            0.0000000000
     42230      6829  TIP3      H1             29.6717118166       25.6085106069      -37.1171672748  TIP3      6637            0.0000000000
     42231      6829  TIP3      H2             28.7205744049       24.6291674379      -36.4056035272  TIP3      6637            0.0000000000
     42232      6830  TIP3      OH2            29.8425802465       26.0922695707      -28.4729252392  TIP3      6638            0.0000000000
     42233      6830  TIP3      H1             30.1228175148       26.2197017415      -27.5379337690  TIP3      6638            0.0000000000
     42234      6830  TIP3      H2             30.2498351649       25.2244636095      -28.6854444928  TIP3      6638            0.0000000000
     42235      6831  TIP3      OH2            29.7253820681       21.7674442508      -36.6005436726  TIP3      6639            0.0000000000
     42236      6831  TIP3      H1             29.3321080528       22.4425263512      -36.0064805698  TIP3      6639            0.0000000000
     42237      6831  TIP3      H2             30.4622350805       22.3127037656      -36.9968441767  TIP3      6639            0.0000000000
     42238      6832  TIP3      OH2            26.8560923590      -36.8321232240      -39.6041214844  TIP3      6640            0.0000000000
     42239      6832  TIP3      H1             27.2084742858      -35.9351642950      -39.6129011184  TIP3      6640            0.0000000000
     42240      6832  TIP3      H2             26.2570051369      -36.8168556543      -38.8254124307  TIP3      6640            0.0000000000
     42241      6833  TIP3      OH2            25.3822566927       22.9490282394      -39.4157687855  TIP3      6641            0.0000000000
     42242      6833  TIP3      H1             25.3830261855       23.7749050499      -38.8891198770  TIP3      6641            0.0000000000
     42243      6833  TIP3      H2             26.2251329484       22.5473099510      -39.1241374601  TIP3      6641            0.0000000000
     42244      6834  TIP3      OH2            35.7608181987       23.5926936170      -27.3209807816  TIP3      6642            0.0000000000
     42245      6834  TIP3      H1             34.8565319508       23.9775865014      -27.2615264834  TIP3      6642            0.0000000000
     42246      6834  TIP3      H2             36.0331482124       23.8674744708      -28.2101310937  TIP3      6642            0.0000000000
     42247      6835  TIP3      OH2            34.5298632680       27.7514341056      -33.0420354797  TIP3      6643            0.0000000000
     42248      6835  TIP3      H1             33.6492465112       27.3408609972      -33.1579210939  TIP3      6643            0.0000000000
     42249      6835  TIP3      H2             35.0315638885       27.0131915693      -32.6676039408  TIP3      6643            0.0000000000
     42250      6836  TIP3      OH2            23.7123609379       33.1773332448      -40.6665460570  TIP3      6644            0.0000000000
     42251      6836  TIP3      H1             24.3452892592       33.8606321285      -40.3951073167  TIP3      6644            0.0000000000
     42252      6836  TIP3      H2             24.2166866990       32.8153716480      -41.4162330343  TIP3      6644            0.0000000000
     42253      6837  TIP3      OH2            21.9745355630       26.2965714929      -41.2509703584  TIP3      6645            0.0000000000
     42254      6837  TIP3      H1             22.1585147717       27.2522647946      -41.3188944135  TIP3      6645            0.0000000000
     42255      6837  TIP3      H2             21.3252867665       26.1921052753      -41.9634381531  TIP3      6645            0.0000000000
     42256      6838  TIP3      OH2            22.8431304822       20.9568152706      -32.7363007446  TIP3      6646            0.0000000000
     42257      6838  TIP3      H1             22.6908932465       20.8438544345      -33.7007756950  TIP3      6646            0.0000000000
     42258      6838  TIP3      H2             22.5962490504       20.0524634451      -32.4319686269  TIP3      6646            0.0000000000
     42259      6839  TIP3      OH2            22.0836692725       34.9053214116      -36.0874491900  TIP3      6647            0.0000000000
     42260      6839  TIP3      H1             21.1743352275       34.6006132750      -35.9800254392  TIP3      6647            0.0000000000
     42261      6839  TIP3      H2             22.0052746447       35.3620152174      -36.9533886634  TIP3      6647            0.0000000000
     42262      6840  TIP3      OH2            26.0611775446       35.7509932075      -24.0605591590  TIP3      6648            0.0000000000
     42263      6840  TIP3      H1             26.7332739854       35.1010581610      -23.7718675538  TIP3      6648            0.0000000000
     42264      6840  TIP3      H2             25.5484036466       35.2304728625      -24.7200524225  TIP3      6648            0.0000000000
     42265      6841  TIP3      OH2            30.5250485257       35.9661280417      -41.5442638312  TIP3      6649            0.0000000000
     42266      6841  TIP3      H1             29.9233507186       35.4059756113      -42.0830631557  TIP3      6649            0.0000000000
     42267      6841  TIP3      H2             31.1142924991       36.2871540920      -42.2378509035  TIP3      6649            0.0000000000
     42268      6842  TIP3      OH2            31.7924374368       34.1195460655      -25.0368928102  TIP3      6650            0.0000000000
     42269      6842  TIP3      H1             31.3525932803       34.0525313470      -24.1796578127  TIP3      6650            0.0000000000
     42270      6842  TIP3      H2             32.6919417918       34.3576264436      -24.6882549594  TIP3      6650            0.0000000000
     42271      6843  TIP3      OH2            34.8028278630       35.5100449633      -42.2804105695  TIP3      6651            0.0000000000
     42272      6843  TIP3      H1             34.4000670969       35.1464740214      -41.4815013776  TIP3      6651            0.0000000000
     42273      6843  TIP3      H2             35.7244482190       35.2525481838      -42.1608476257  TIP3      6651            0.0000000000
     42274      6844  TIP3      OH2            20.6379116871       31.0290013126      -24.6143296173  TIP3      6652            0.0000000000
     42275      6844  TIP3      H1             20.3511566831       30.1132826990      -24.7389191961  TIP3      6652            0.0000000000
     42276      6844  TIP3      H2             20.0339998714       31.5093544303      -25.2337926394  TIP3      6652            0.0000000000
     42277      6845  TIP3      OH2            25.4903634663       31.1279992660      -41.7250027624  TIP3      6653            0.0000000000
     42278      6845  TIP3      H1             25.8850149745       30.7009154145      -40.9380610794  TIP3      6653            0.0000000000
     42279      6845  TIP3      H2             26.0769988649       30.8024343748      -42.4463497993  TIP3      6653            0.0000000000
     42280      6846  TIP3      OH2            28.2564488633       31.1998789784      -25.0978965843  TIP3      6654            0.0000000000
     42281      6846  TIP3      H1             27.8083961234       31.6057230442      -25.8786750815  TIP3      6654            0.0000000000
     42282      6846  TIP3      H2             28.3824189105       30.2731590661      -25.4121002945  TIP3      6654            0.0000000000
     42283      6847  TIP3      OH2            33.1085964636       30.8858017497      -27.6068916885  TIP3      6655            0.0000000000
     42284      6847  TIP3      H1             33.9436929491       31.4176187347      -27.6117548228  TIP3      6655            0.0000000000
     42285      6847  TIP3      H2             32.4313299843       31.5713962204      -27.7020188571  TIP3      6655            0.0000000000
     42286      6848  TIP3      OH2            21.7520398447       28.2687075329      -24.9327506843  TIP3      6656            0.0000000000
     42287      6848  TIP3      H1             22.5465092364       27.7609832690      -24.7183408857  TIP3      6656            0.0000000000
     42288      6848  TIP3      H2             21.7745622398       28.8817017046      -24.1770170421  TIP3      6656            0.0000000000
     42289      6849  TIP3      OH2            26.6890647302       29.6703312840      -39.7961226424  TIP3      6657            0.0000000000
     42290      6849  TIP3      H1             25.9987086417       29.1079537772      -39.3863388984  TIP3      6657            0.0000000000
     42291      6849  TIP3      H2             27.1206680619       29.0364735968      -40.4068477376  TIP3      6657            0.0000000000
     42292      6850  TIP3      OH2            25.5387348981       27.2608166638      -27.9134601550  TIP3      6658            0.0000000000
     42293      6850  TIP3      H1             24.9029843603       27.9950014928      -27.8637182837  TIP3      6658            0.0000000000
     42294      6850  TIP3      H2             26.2523854020       27.7027542014      -28.3985244901  TIP3      6658            0.0000000000
     42295      6851  TIP3      OH2            27.7689615837       27.9245556236      -41.7762911112  TIP3      6659            0.0000000000
     42296      6851  TIP3      H1             27.9362532989       28.1307935008      -42.7102666061  TIP3      6659            0.0000000000
     42297      6851  TIP3      H2             28.6939883551       27.9298131243      -41.4145801418  TIP3      6659            0.0000000000
     42298      6852  TIP3      OH2            26.2881914615       25.0250752762      -26.6662929415  TIP3      6660            0.0000000000
     42299      6852  TIP3      H1             26.5802744756       24.3486267931      -27.3080257463  TIP3      6660            0.0000000000
     42300      6852  TIP3      H2             25.8783113615       25.6950354703      -27.2627351722  TIP3      6660            0.0000000000
     42301      6853  TIP3      OH2            26.7905180408       23.1675442517      -28.7952384930  TIP3      6661            0.0000000000
     42302      6853  TIP3      H1             27.4317122607       23.6441233779      -29.3716428519  TIP3      6661            0.0000000000
     42303      6853  TIP3      H2             25.9442231435       23.3765688799      -29.2369567558  TIP3      6661            0.0000000000
     42304      6854  TIP3      OH2            27.6272592216       28.8731854516      -28.8829835423  TIP3      6662            0.0000000000
     42305      6854  TIP3      H1             28.5292748601       28.9366137977      -29.2421109313  TIP3      6662            0.0000000000
     42306      6854  TIP3      H2             27.1748977584       29.6450968917      -29.2951234155  TIP3      6662            0.0000000000
     42307      6855  TIP3      OH2            32.1222417515       26.3299334986      -23.7779306434  TIP3      6663            0.0000000000
     42308      6855  TIP3      H1             32.3863907966       25.5354853836      -23.2819956991  TIP3      6663            0.0000000000
     42309      6855  TIP3      H2             32.8734108449       26.4687890348      -24.3752699424  TIP3      6663            0.0000000000
     42310      6856  TIP3      OH2            33.8338865760       29.0788707112      -25.8813949864  TIP3      6664            0.0000000000
     42311      6856  TIP3      H1             33.4165484242       29.8652854481      -26.2948384400  TIP3      6664            0.0000000000
     42312      6856  TIP3      H2             34.7802422360       29.3652914199      -25.8436480214  TIP3      6664            0.0000000000
     42313      6857  TIP3      OH2            24.6463242863       26.4795632118      -24.3907904934  TIP3      6665            0.0000000000
     42314      6857  TIP3      H1             23.9734245717       25.7815948707      -24.5045625619  TIP3      6665            0.0000000000
     42315      6857  TIP3      H2             25.3462941681       26.1663337368      -24.9957822196  TIP3      6665            0.0000000000
     42316      6858  TIP3      OH2            27.6442252817       20.5507821719      -29.1324796681  TIP3      6666            0.0000000000
     42317      6858  TIP3      H1             27.3458731017       21.4598692789      -28.8828134953  TIP3      6666            0.0000000000
     42318      6858  TIP3      H2             26.8167555413       20.2024650108      -29.5063983362  TIP3      6666            0.0000000000
     42319      6859  TIP3      OH2            28.5997110848       25.0541973186      -25.0551186781  TIP3      6667            0.0000000000
     42320      6859  TIP3      H1             28.2976309233       24.9816238864      -24.1242627155  TIP3      6667            0.0000000000
     42321      6859  TIP3      H2             27.7452379334       25.0259451665      -25.5289028357  TIP3      6667            0.0000000000
     42322      6860  TIP3      OH2            31.5515907677       23.5500426045      -25.6597852666  TIP3      6668            0.0000000000
     42323      6860  TIP3      H1             30.5919956606       23.6603366800      -25.5447144957  TIP3      6668            0.0000000000
     42324      6860  TIP3      H2             31.7864498863       23.0360051101      -24.8689563174  TIP3      6668            0.0000000000
     42325      6861  TIP3      OH2            22.5480951289       23.8526889243      -24.7113546131  TIP3      6669            0.0000000000
     42326      6861  TIP3      H1             22.7807371192       23.0115030755      -25.1442173558  TIP3      6669            0.0000000000
     42327      6861  TIP3      H2             22.4872992503       23.6367508541      -23.7561321047  TIP3      6669            0.0000000000
     42328      6862  TIP3      OH2            27.2229812262       20.1347241156      -26.5293653969  TIP3      6670            0.0000000000
     42329      6862  TIP3      H1             27.9526997504       19.5669263797      -26.2618974983  TIP3      6670            0.0000000000
     42330      6862  TIP3      H2             27.3207383214       20.1203136526      -27.5029419771  TIP3      6670            0.0000000000
     42331      6863  TIP3      OH2            27.6339121274       21.4345929839      -23.1547159418  TIP3      6671            0.0000000000
     42332      6863  TIP3      H1             27.6383526397       20.6213163823      -23.6771338948  TIP3      6671            0.0000000000
     42333      6863  TIP3      H2             26.7416211913       21.7531261738      -23.3534978602  TIP3      6671            0.0000000000
     42334      6864  TIP3      OH2            20.9312472013       32.6493397367      -41.2249743521  TIP3      6672            0.0000000000
     42335      6864  TIP3      H1             21.8817791078       32.6332438186      -41.0079116483  TIP3      6672            0.0000000000
     42336      6864  TIP3      H2             20.9671044491       32.6805338115      -42.1919980815  TIP3      6672            0.0000000000
     42337      6865  TIP3      OH2            20.3613074120       37.1017202519      -34.0249008119  TIP3      6673            0.0000000000
     42338      6865  TIP3      H1             19.9649725313       36.2221060242      -33.9005384491  TIP3      6673            0.0000000000
     42339      6865  TIP3      H2             20.9278583114       37.1673429441      -33.2314732903  TIP3      6673            0.0000000000
     42340      6866  TIP3      OH2            35.8973166052       32.6864825464      -23.4297696248  TIP3      6674            0.0000000000
     42341      6866  TIP3      H1             35.0310619884       32.7954268005      -22.9964584380  TIP3      6674            0.0000000000
     42342      6866  TIP3      H2             35.7580299340       33.2190976117      -24.2234085567  TIP3      6674            0.0000000000
     42343      6867  TIP3      OH2            36.4408467943       34.6328746417      -29.0811764119  TIP3      6675            0.0000000000
     42344      6867  TIP3      H1             35.7312995319       35.1439111636      -28.6257504763  TIP3      6675            0.0000000000
     42345      6867  TIP3      H2             36.0158225212       34.4239479976      -29.9359616671  TIP3      6675            0.0000000000
     42346      6868  TIP3      OH2            36.6054148820       26.0140506719      -41.4504471077  TIP3      6676            0.0000000000
     42347      6868  TIP3      H1             36.8039796159       26.6927656957      -42.1133015580  TIP3      6676            0.0000000000
     42348      6868  TIP3      H2             36.1513678613       25.3604311451      -42.0179064091  TIP3      6676            0.0000000000
     42349      6869  TIP3      OH2            35.6233584131       27.7376183442      -35.6308752549  TIP3      6677            0.0000000000
     42350      6869  TIP3      H1             35.3032058026       26.9550894735      -35.1583920536  TIP3      6677            0.0000000000
     42351      6869  TIP3      H2             35.6111424540       28.3701892945      -34.8876417197  TIP3      6677            0.0000000000
     42352      6870  TIP3      OH2            20.5504647479       29.9135825704      -31.8544154252  TIP3      6678            0.0000000000
     42353      6870  TIP3      H1             20.4858370596       29.4809528459      -32.7349597559  TIP3      6678            0.0000000000
     42354      6870  TIP3      H2             21.5132506974       29.7640062564      -31.6690037488  TIP3      6678            0.0000000000
     42355      6871  TIP3      OH2            36.3987035395       29.6435641407      -25.8609650596  TIP3      6679            0.0000000000
     42356      6871  TIP3      H1             36.9860510323       28.9132221484      -25.5692033604  TIP3      6679            0.0000000000
     42357      6871  TIP3      H2             36.7822087830       29.8709696141      -26.7273277957  TIP3      6679            0.0000000000
     42358      6872  TIP3      OH2            35.0354686912       24.0263422964      -42.5795650211  TIP3      6680            0.0000000000
     42359      6872  TIP3      H1             35.6977455119       23.5182581229      -42.0844037683  TIP3      6680            0.0000000000
     42360      6872  TIP3      H2             34.1952928724       23.7413487942      -42.1664816457  TIP3      6680            0.0000000000
     42361      6873  TIP3      OH2            35.1780242394       24.7800206185      -37.7747409074  TIP3      6681            0.0000000000
     42362      6873  TIP3      H1             35.3468609651       24.0986958718      -37.0866120667  TIP3      6681            0.0000000000
     42363      6873  TIP3      H2             36.0444709947       24.9071341007      -38.1926295915  TIP3      6681            0.0000000000
     42364      6874  TIP3      OH2            35.8355450357       25.0616264717      -31.5599862469  TIP3      6682            0.0000000000
     42365      6874  TIP3      H1             36.5820879115       25.2548955972      -32.1463387329  TIP3      6682            0.0000000000
     42366      6874  TIP3      H2             35.9539608223       25.7519748884      -30.8880369863  TIP3      6682            0.0000000000
     42367      6875  TIP3      OH2            35.9203151566       26.6366350856      -28.3836036703  TIP3      6683            0.0000000000
     42368      6875  TIP3      H1             34.9452603746       26.7706989132      -28.3243045438  TIP3      6683            0.0000000000
     42369      6875  TIP3      H2             36.0873674674       26.9859075127      -29.2743216617  TIP3      6683            0.0000000000
     42370      6876  TIP3      OH2            20.4287331499       25.1029541818      -25.6989145020  TIP3      6684            0.0000000000
     42371      6876  TIP3      H1             21.3170468382       24.8806091228      -25.3276123294  TIP3      6684            0.0000000000
     42372      6876  TIP3      H2             20.0168387169       24.2054497780      -25.6492690048  TIP3      6684            0.0000000000
     42373      6877  TIP3      OH2            35.0343718279       22.1175543579      -36.8929869087  TIP3      6685            0.0000000000
     42374      6877  TIP3      H1             35.8795801428       21.6220865136      -36.8634054108  TIP3      6685            0.0000000000
     42375      6877  TIP3      H2             34.5212435906       21.4841336950      -37.4473035635  TIP3      6685            0.0000000000
     42376      6878  TIP3      OH2            21.6297933611       23.3060812846      -32.3430042744  TIP3      6686            0.0000000000
     42377      6878  TIP3      H1             21.9629729258       22.3873035860      -32.4536584490  TIP3      6686            0.0000000000
     42378      6878  TIP3      H2             22.4505680092       23.8313029841      -32.2267265307  TIP3      6686            0.0000000000
     42379      6879  TIP3      OH2            19.9066427806       26.1771897181      -31.5155705864  TIP3      6687            0.0000000000
     42380      6879  TIP3      H1             20.4293498019       25.8353063232      -32.2579504845  TIP3      6687            0.0000000000
     42381      6879  TIP3      H2             20.3421537173       27.0254629592      -31.3527922534  TIP3      6687            0.0000000000
     42382      6880  TIP3      OH2            20.0438591490       22.3761930844      -37.9911269364  TIP3      6688            0.0000000000
     42383      6880  TIP3      H1             19.1320582936       22.5670227930      -37.7404134875  TIP3      6688            0.0000000000
     42384      6880  TIP3      H2             20.1827233031       22.9855452730      -38.7438193547  TIP3      6688            0.0000000000
     42385      6881  TIP3      OH2            20.0018810458       21.1424631556      -29.4653056372  TIP3      6689            0.0000000000
     42386      6881  TIP3      H1             19.4679592674       20.8871440338      -28.6862950496  TIP3      6689            0.0000000000
     42387      6881  TIP3      H2             19.4759319066       21.8581128707      -29.8411074596  TIP3      6689            0.0000000000
     42388      6882  TIP3      OH2            22.2825553150       34.3753808858      -25.4255553820  TIP3      6690            0.0000000000
     42389      6882  TIP3      H1             21.3605219017       34.6158258061      -25.5928507015  TIP3      6690            0.0000000000
     42390      6882  TIP3      H2             22.2321731984       33.9316816153      -24.5699922474  TIP3      6690            0.0000000000
     42391      6883  TIP3      OH2            25.3219278637       35.1753570929      -28.8288670401  TIP3      6691            0.0000000000
     42392      6883  TIP3      H1             25.0131094291       35.8339097570      -29.4588911913  TIP3      6691            0.0000000000
     42393      6883  TIP3      H2             26.2886939076       35.2332793389      -28.9561916017  TIP3      6691            0.0000000000
     42394      6884  TIP3      OH2            24.1147177249       36.0947730214      -34.3005673833  TIP3      6692            0.0000000000
     42395      6884  TIP3      H1             23.9405188277       35.1491130315      -34.4698764177  TIP3      6692            0.0000000000
     42396      6884  TIP3      H2             24.7493963936       36.0294539226      -33.5660469907  TIP3      6692            0.0000000000
     42397      6885  TIP3      OH2            26.2679677006       35.8041969059      -31.9757435721  TIP3      6693            0.0000000000
     42398      6885  TIP3      H1             26.0526602405       35.0225870193      -32.5136373834  TIP3      6693            0.0000000000
     42399      6885  TIP3      H2             26.7702956379       35.3628683740      -31.2577750467  TIP3      6693            0.0000000000
     42400      6886  TIP3      OH2            30.1874209570       22.0539851867      -33.2272659698  TIP3      6694            0.0000000000
     42401      6886  TIP3      H1             29.3431253348       21.6571304631      -32.9588627212  TIP3      6694            0.0000000000
     42402      6886  TIP3      H2             30.5714807220       21.3524687459      -33.7717661687  TIP3      6694            0.0000000000
     42403      6887  TIP3      OH2            35.4056968376       19.7123265868      -33.4463475013  TIP3      6695            0.0000000000
     42404      6887  TIP3      H1             35.9704542387       20.4263861264      -33.1293001709  TIP3      6695            0.0000000000
     42405      6887  TIP3      H2             34.6312280004       20.2275303219      -33.7778929750  TIP3      6695            0.0000000000
     42406      6888  TIP3      OH2            22.4921557105       20.4513929438      -35.4395610345  TIP3      6696            0.0000000000
     42407      6888  TIP3      H1             21.6874529491       20.2625525507      -35.9616051825  TIP3      6696            0.0000000000
     42408      6888  TIP3      H2             22.9984013998       19.6136000255      -35.5725575562  TIP3      6696            0.0000000000
     42409      6889  TIP3      OH2            21.1582072602       20.4293089918      -39.9288543978  TIP3      6697            0.0000000000
     42410      6889  TIP3      H1             21.7177631206       21.0615321094      -40.4320973209  TIP3      6697            0.0000000000
     42411      6889  TIP3      H2             20.8065497777       20.9573353732      -39.1832028648  TIP3      6697            0.0000000000
     42412      6890  TIP3      OH2            26.9480136682       20.3246916924      -35.3110791221  TIP3      6698            0.0000000000
     42413      6890  TIP3      H1             27.7246268419       20.5074458604      -35.8465423411  TIP3      6698            0.0000000000
     42414      6890  TIP3      H2             27.1335063683       20.8192698795      -34.4969310678  TIP3      6698            0.0000000000
     42415      6891  TIP3      OH2            33.0319374669       20.6204641676      -34.5886622030  TIP3      6699            0.0000000000
     42416      6891  TIP3      H1             33.0010616285       20.4807939836      -35.5438862404  TIP3      6699            0.0000000000
     42417      6891  TIP3      H2             32.3605212692       19.9693042025      -34.2641888052  TIP3      6699            0.0000000000
     42418      6892  TIP3      OH2            33.7568067293       20.4150094590      -38.3940592307  TIP3      6700            0.0000000000
     42419      6892  TIP3      H1             32.9333944708       20.7121697947      -38.8278880831  TIP3      6700            0.0000000000
     42420      6892  TIP3      H2             33.5565393557       19.4804986230      -38.1749583103  TIP3      6700            0.0000000000
     42421      6893  TIP3      OH2            21.0269391597       36.3044282924      -38.1107508407  TIP3      6701            0.0000000000
     42422      6893  TIP3      H1             20.0711618071       36.2903288266      -38.2902950160  TIP3      6701            0.0000000000
     42423      6893  TIP3      H2             21.1698061407       37.2298354517      -37.8728620883  TIP3      6701            0.0000000000
     42424      6894  TIP3      OH2            22.9885342242       21.8045810217      -41.2796161964  TIP3      6702            0.0000000000
     42425      6894  TIP3      H1             23.8956355426       21.5512653746      -41.5031976066  TIP3      6702            0.0000000000
     42426      6894  TIP3      H2             23.1439944237       22.6147544966      -40.7713793797  TIP3      6702            0.0000000000
     42427      6895  TIP3      OH2            28.3058318793       22.8327274054      -38.8730511209  TIP3      6703            0.0000000000
     42428      6895  TIP3      H1             28.6609869832       22.2305727213      -38.2049217639  TIP3      6703            0.0000000000
     42429      6895  TIP3      H2             28.5719494652       23.6796388702      -38.4372131625  TIP3      6703            0.0000000000
     42430      6896  TIP3      OH2            22.5295674987       21.3337062969      -26.3098781651  TIP3      6704            0.0000000000
     42431      6896  TIP3      H1             21.8950032504       20.6298430170      -26.0922025391  TIP3      6704            0.0000000000
     42432      6896  TIP3      H2             23.2612846856       21.1626887171      -25.6581588860  TIP3      6704            0.0000000000
     42433      6897  TIP3      OH2            24.5079501127       20.8695500507      -24.5599720320  TIP3      6705            0.0000000000
     42434      6897  TIP3      H1             25.2284537300       20.3130233129      -24.9078085685  TIP3      6705            0.0000000000
     42435      6897  TIP3      H2             24.3288953739       20.3440577349      -23.7395406795  TIP3      6705            0.0000000000
     42436      6898  TIP3      OH2            33.0478283578       20.1658171811      -24.1807239224  TIP3      6706            0.0000000000
     42437      6898  TIP3      H1             33.1615644047       19.7202634072      -23.3089567342  TIP3      6706            0.0000000000
     42438      6898  TIP3      H2             33.8987276847       19.9525028292      -24.6095434675  TIP3      6706            0.0000000000
     42439      6899  TIP3      OH2            35.9992539821       36.0114482931      -25.8662946887  TIP3      6707            0.0000000000
     42440      6899  TIP3      H1             35.2358109295       35.9185554769      -26.4573068616  TIP3      6707            0.0000000000
     42441      6899  TIP3      H2             35.8018514435       36.8078664477      -25.3513140596  TIP3      6707            0.0000000000
     42442      6900  TIP3      OH2           -20.7268222062      -35.5521699691      -21.4532145807  TIP3      6708            0.0000000000
     42443      6900  TIP3      H1            -21.2008555621      -36.1512740424      -20.8578674573  TIP3      6708            0.0000000000
     42444      6900  TIP3      H2            -20.4421361778      -34.8315251226      -20.8595049661  TIP3      6708            0.0000000000
     42445      6901  TIP3      OH2           -18.5018718204      -21.8424389006      -22.7628654904  TIP3      6709            0.0000000000
     42446      6901  TIP3      H1            -18.6091420448      -21.0105901608      -22.2727997916  TIP3      6709            0.0000000000
     42447      6901  TIP3      H2            -17.7419990975      -22.2084142042      -22.2528882668  TIP3      6709            0.0000000000
     42448      6902  TIP3      OH2           -22.4624318294      -26.5347031044      -22.6268011917  TIP3      6710            0.0000000000
     42449      6902  TIP3      H1            -22.4559404558      -26.6936290431      -23.5913852670  TIP3      6710            0.0000000000
     42450      6902  TIP3      H2            -21.5186431598      -26.6068213480      -22.4194358325  TIP3      6710            0.0000000000
     42451      6903  TIP3      OH2           -34.8665559676      -32.1965930761      -21.1621803471  TIP3      6711            0.0000000000
     42452      6903  TIP3      H1            -34.2468469902      -31.5729779433      -20.7581419512  TIP3      6711            0.0000000000
     42453      6903  TIP3      H2            -34.8719413395      -31.8794676869      -22.0723992500  TIP3      6711            0.0000000000
     42454      6904  TIP3      OH2           -18.4720698320      -19.0478116015      -21.4842144949  TIP3      6712            0.0000000000
     42455      6904  TIP3      H1            -17.8317706993      -18.3378295517      -21.5709131262  TIP3      6712            0.0000000000
     42456      6904  TIP3      H2            -18.8297285270      -18.9365964993      -20.5902057411  TIP3      6712            0.0000000000
     42457      6905  TIP3      OH2           -22.2923440166      -21.1976777162      -23.7155034754  TIP3      6713            0.0000000000
     42458      6905  TIP3      H1            -21.8117110131      -21.5489596698      -22.9462180995  TIP3      6713            0.0000000000
     42459      6905  TIP3      H2            -21.5714768716      -21.0782021500      -24.3636125435  TIP3      6713            0.0000000000
     42460      6906  TIP3      OH2           -31.1534396650      -25.2621190068      -23.8749578468  TIP3      6714            0.0000000000
     42461      6906  TIP3      H1            -31.2001959546      -25.8091621180      -23.0705490426  TIP3      6714            0.0000000000
     42462      6906  TIP3      H2            -30.2136251250      -25.2965398798      -24.1189868906  TIP3      6714            0.0000000000
     42463      6907  TIP3      OH2           -25.8890053269      -23.9277601928      -23.6079065629  TIP3      6715            0.0000000000
     42464      6907  TIP3      H1            -26.4725849069      -24.6008731205      -23.2012701949  TIP3      6715            0.0000000000
     42465      6907  TIP3      H2            -25.4789979229      -24.5451449463      -24.2471528392  TIP3      6715            0.0000000000
     42466      6908  TIP3      OH2           -19.4895474366      -26.5260931583      -23.4744070409  TIP3      6716            0.0000000000
     42467      6908  TIP3      H1            -19.7759421450      -26.7666395461      -24.3758581035  TIP3      6716            0.0000000000
     42468      6908  TIP3      H2            -19.3103420262      -25.5706937034      -23.6022229736  TIP3      6716            0.0000000000
     42469      6909  TIP3      OH2           -28.4129408733      -18.5413778918      -22.1863484262  TIP3      6717            0.0000000000
     42470      6909  TIP3      H1            -27.7141478425      -18.1388442371      -21.6683227614  TIP3      6717            0.0000000000
     42471      6909  TIP3      H2            -28.8304158878      -17.7422406618      -22.5681425050  TIP3      6717            0.0000000000
     42472      6910  TIP3      OH2           -35.1880439021      -22.8311759010      -22.4207320440  TIP3      6718            0.0000000000
     42473      6910  TIP3      H1            -34.9925479542      -22.8514832456      -21.4698090922  TIP3      6718            0.0000000000
     42474      6910  TIP3      H2            -35.3242360126      -23.7672643249      -22.6379761724  TIP3      6718            0.0000000000
     42475      6911  TIP3      OH2           -18.5087063963      -27.5107686731      -21.0208200155  TIP3      6719            0.0000000000
     42476      6911  TIP3      H1            -18.8853594910      -27.2738330229      -21.8955537538  TIP3      6719            0.0000000000
     42477      6911  TIP3      H2            -18.7744483109      -26.7455677638      -20.5004704966  TIP3      6719            0.0000000000
     42478      6912  TIP3      OH2           -34.6745674231      -36.4579659863      -20.7283933776  TIP3      6720            0.0000000000
     42479      6912  TIP3      H1            -35.5472165145      -36.1124707469      -20.9379443640  TIP3      6720            0.0000000000
     42480      6912  TIP3      H2            -34.3268250645      -35.9499812748      -19.9624324211  TIP3      6720            0.0000000000
     42481      6913  TIP3      OH2            -7.3440925513      -28.2346297395      -22.7064592920  TIP3      6721            0.0000000000
     42482      6913  TIP3      H1             -7.5478606532      -28.7933437738      -21.9355904634  TIP3      6721            0.0000000000
     42483      6913  TIP3      H2             -6.8649928703      -28.8859762038      -23.2617532799  TIP3      6721            0.0000000000
     42484      6914  TIP3      OH2            -4.9541795123      -19.3234806378      -22.0488886768  TIP3      6722            0.0000000000
     42485      6914  TIP3      H1             -4.6633312497      -20.1878528436      -22.3752268648  TIP3      6722            0.0000000000
     42486      6914  TIP3      H2             -4.5493395493      -19.3043034211      -21.1567976786  TIP3      6722            0.0000000000
     42487      6915  TIP3      OH2            -3.5164196106      -26.1261875599      -22.3388934149  TIP3      6723            0.0000000000
     42488      6915  TIP3      H1             -3.9224421845      -26.1435315233      -23.2159729602  TIP3      6723            0.0000000000
     42489      6915  TIP3      H2             -2.5656592225      -26.1269346975      -22.5779514126  TIP3      6723            0.0000000000
     42490      6916  TIP3      OH2             0.1108723756      -19.4017922108      -21.9743056080  TIP3      6724            0.0000000000
     42491      6916  TIP3      H1              1.0607565699      -19.3501820834      -22.0821570244  TIP3      6724            0.0000000000
     42492      6916  TIP3      H2              0.0316598142      -20.0411084133      -21.2322773168  TIP3      6724            0.0000000000
     42493      6917  TIP3      OH2            -9.6466837876      -22.6095804764      -23.7604376641  TIP3      6725            0.0000000000
     42494      6917  TIP3      H1             -9.7532900352      -23.3503139243      -24.3730319147  TIP3      6725            0.0000000000
     42495      6917  TIP3      H2            -10.2614668462      -22.8822926639      -23.0671945477  TIP3      6725            0.0000000000
     42496      6918  TIP3      OH2           -16.0396180566      -30.0670983269      -22.7878960400  TIP3      6726            0.0000000000
     42497      6918  TIP3      H1            -15.6903595284      -30.3552064220      -21.9355755984  TIP3      6726            0.0000000000
     42498      6918  TIP3      H2            -16.5154231979      -30.8547664456      -23.0648064408  TIP3      6726            0.0000000000
     42499      6919  TIP3      OH2            -7.7937233203      -20.2387862306      -23.7542278808  TIP3      6727            0.0000000000
     42500      6919  TIP3      H1             -8.2824342830      -21.0434801368      -23.4799396761  TIP3      6727            0.0000000000
     42501      6919  TIP3      H2             -6.9938895460      -20.6220750694      -24.1708829225  TIP3      6727            0.0000000000
     42502      6920  TIP3      OH2            -3.2713108234      -20.9214380360      -23.6232539018  TIP3      6728            0.0000000000
     42503      6920  TIP3      H1             -2.9123542304      -21.3796574717      -22.8363053700  TIP3      6728            0.0000000000
     42504      6920  TIP3      H2             -2.5170511058      -20.9973579199      -24.2397062596  TIP3      6728            0.0000000000
     42505      6921  TIP3      OH2           -12.3945960178      -25.1585319405      -23.5977552893  TIP3      6729            0.0000000000
     42506      6921  TIP3      H1            -12.0716032813      -25.1586005196      -22.6779507756  TIP3      6729            0.0000000000
     42507      6921  TIP3      H2            -11.5955370396      -25.3801660922      -24.1158618125  TIP3      6729            0.0000000000
     42508      6922  TIP3      OH2           -10.2231962079      -28.5098372083      -23.1434958075  TIP3      6730            0.0000000000
     42509      6922  TIP3      H1            -10.5434410039      -28.2689650002      -24.0353668483  TIP3      6730            0.0000000000
     42510      6922  TIP3      H2             -9.2758754333      -28.3164023953      -23.2252229062  TIP3      6730            0.0000000000
     42511      6923  TIP3      OH2            -1.0390614713      -26.3259740480      -23.4184760294  TIP3      6731            0.0000000000
     42512      6923  TIP3      H1             -0.8859464684      -26.6466122777      -24.3165451094  TIP3      6731            0.0000000000
     42513      6923  TIP3      H2             -0.8233979542      -25.3723421550      -23.4916561626  TIP3      6731            0.0000000000
     42514      6924  TIP3      OH2           -10.1085025959      -18.3199632799      -21.1333432869  TIP3      6732            0.0000000000
     42515      6924  TIP3      H1             -9.1733935276      -18.0678003214      -21.1209199686  TIP3      6732            0.0000000000
     42516      6924  TIP3      H2            -10.3970736318      -17.8105413367      -21.9105878037  TIP3      6732            0.0000000000
     42517      6925  TIP3      OH2            -7.3989608984      -18.1405017808      -21.9050219734  TIP3      6733            0.0000000000
     42518      6925  TIP3      H1             -6.4674674614      -18.4315335799      -21.9412258423  TIP3      6733            0.0000000000
     42519      6925  TIP3      H2             -7.7767748471      -18.8143862453      -22.5026306142  TIP3      6733            0.0000000000
     42520      6926  TIP3      OH2           -15.1425484829      -19.8287353270      -23.5323869008  TIP3      6734            0.0000000000
     42521      6926  TIP3      H1            -14.8945083011      -19.8774624169      -22.5945847826  TIP3      6734            0.0000000000
     42522      6926  TIP3      H2            -14.2977073391      -20.0539533704      -23.9706053307  TIP3      6734            0.0000000000
     42523      6927  TIP3      OH2            18.6818366397      -21.6007101322      -22.8414709553  TIP3      6735            0.0000000000
     42524      6927  TIP3      H1             18.9572002393      -20.7393225603      -22.4718264220  TIP3      6735            0.0000000000
     42525      6927  TIP3      H2             19.5236894542      -22.0652015009      -22.9685029330  TIP3      6735            0.0000000000
     42526      6928  TIP3      OH2            14.7702572778      -27.2702625738      -23.0306486063  TIP3      6736            0.0000000000
     42527      6928  TIP3      H1             15.2783804224      -27.4470487998      -23.8330958878  TIP3      6736            0.0000000000
     42528      6928  TIP3      H2             15.3810389261      -26.7770918217      -22.4645111534  TIP3      6736            0.0000000000
     42529      6929  TIP3      OH2            15.1991617714      -23.4226640597      -22.0462365580  TIP3      6737            0.0000000000
     42530      6929  TIP3      H1             15.4296889043      -23.9650450371      -21.2756152794  TIP3      6737            0.0000000000
     42531      6929  TIP3      H2             14.3038384571      -23.7143909624      -22.2840479793  TIP3      6737            0.0000000000
     42532      6930  TIP3      OH2            19.2801246161      -19.0350885031      -21.8893124874  TIP3      6738            0.0000000000
     42533      6930  TIP3      H1             19.7315373964      -18.2520198303      -22.2838481037  TIP3      6738            0.0000000000
     42534      6930  TIP3      H2             18.3583427934      -18.7806770802      -22.0235335271  TIP3      6738            0.0000000000
     42535      6931  TIP3      OH2             9.2906599713      -22.3036669715      -23.7083507230  TIP3      6739            0.0000000000
     42536      6931  TIP3      H1              8.9225425337      -22.6893406282      -24.5179257737  TIP3      6739            0.0000000000
     42537      6931  TIP3      H2              8.7324387851      -22.7283220810      -23.0373591867  TIP3      6739            0.0000000000
     42538      6932  TIP3      OH2             4.8299593139      -23.0863538164      -22.0815977969  TIP3      6740            0.0000000000
     42539      6932  TIP3      H1              5.5526074629      -22.7019582001      -21.5550124998  TIP3      6740            0.0000000000
     42540      6932  TIP3      H2              5.3717965506      -23.6279373068      -22.6893607126  TIP3      6740            0.0000000000
     42541      6933  TIP3      OH2            11.0862523530      -20.0284222540      -23.8357391092  TIP3      6741            0.0000000000
     42542      6933  TIP3      H1             10.7246226219      -20.8900189710      -23.5498832246  TIP3      6741            0.0000000000
     42543      6933  TIP3      H2             11.9697155752      -20.2547061469      -24.1777969542  TIP3      6741            0.0000000000
     42544      6934  TIP3      OH2            15.4886968649      -20.9341894315      -23.7279350932  TIP3      6742            0.0000000000
     42545      6934  TIP3      H1             15.4546159405      -21.7248277464      -23.1692230914  TIP3      6742            0.0000000000
     42546      6934  TIP3      H2             16.3878300902      -20.9841032421      -24.0910882603  TIP3      6742            0.0000000000
     42547      6935  TIP3      OH2             6.4220297695      -24.8824465367      -23.6255077746  TIP3      6743            0.0000000000
     42548      6935  TIP3      H1              5.9418243733      -25.7044500359      -23.4087702885  TIP3      6743            0.0000000000
     42549      6935  TIP3      H2              7.1726787448      -25.2267711312      -24.1490338634  TIP3      6743            0.0000000000
     42550      6936  TIP3      OH2            12.2640860972      -23.4365462382      -23.9106734173  TIP3      6744            0.0000000000
     42551      6936  TIP3      H1             11.5125386580      -23.5145227642      -23.3062092315  TIP3      6744            0.0000000000
     42552      6936  TIP3      H2             12.3516109004      -24.3876164108      -24.1504481599  TIP3      6744            0.0000000000
     42553      6937  TIP3      OH2             8.5855281472      -27.9545954409      -23.2842982971  TIP3      6745            0.0000000000
     42554      6937  TIP3      H1              8.6712007415      -27.8285140755      -24.2471012798  TIP3      6745            0.0000000000
     42555      6937  TIP3      H2              9.1722984078      -28.6904407509      -23.0859549678  TIP3      6745            0.0000000000
     42556      6938  TIP3      OH2             8.9939452447      -17.9779101831      -21.0884461705  TIP3      6746            0.0000000000
     42557      6938  TIP3      H1              9.8535105524      -18.4117882803      -21.1954486251  TIP3      6746            0.0000000000
     42558      6938  TIP3      H2              8.8749468833      -17.6044185210      -21.9805440361  TIP3      6746            0.0000000000
     42559      6939  TIP3      OH2             1.9261783632      -22.9547559769      -23.0962755099  TIP3      6747            0.0000000000
     42560      6939  TIP3      H1              2.6842266704      -23.2362056307      -22.5485850314  TIP3      6747            0.0000000000
     42561      6939  TIP3      H2              1.6885411831      -23.7803522606      -23.5531839881  TIP3      6747            0.0000000000
     42562      6940  TIP3      OH2            17.5670614033      -30.3784889426      -23.1715828701  TIP3      6748            0.0000000000
     42563      6940  TIP3      H1             17.8848700853      -29.9482507454      -23.9659490805  TIP3      6748            0.0000000000
     42564      6940  TIP3      H2             17.2766082482      -31.2623978018      -23.4599768870  TIP3      6748            0.0000000000
     42565      6941  TIP3      OH2            16.5684234894      -33.0476721885      -23.2646085343  TIP3      6749            0.0000000000
     42566      6941  TIP3      H1             17.3546104093      -33.5037763930      -23.5940160945  TIP3      6749            0.0000000000
     42567      6941  TIP3      H2             15.8542218915      -33.5956668966      -23.6358584843  TIP3      6749            0.0000000000
     42568      6942  TIP3      OH2             3.8503426697      -19.4886671153      -23.4741151034  TIP3      6750            0.0000000000
     42569      6942  TIP3      H1              3.5718437768      -19.7731400501      -22.5911342874  TIP3      6750            0.0000000000
     42570      6942  TIP3      H2              4.6960621619      -19.9599277855      -23.5580021869  TIP3      6750            0.0000000000
     42571      6943  TIP3      OH2            33.2915019688      -18.8348007662      -21.6448311028  TIP3      6751            0.0000000000
     42572      6943  TIP3      H1             33.5403683424      -19.6714088274      -22.0848045278  TIP3      6751            0.0000000000
     42573      6943  TIP3      H2             32.4531205028      -19.0840218743      -21.1909133965  TIP3      6751            0.0000000000
     42574      6944  TIP3      OH2            33.8511116675      -25.9038757556      -23.0712581851  TIP3      6752            0.0000000000
     42575      6944  TIP3      H1             33.8770883068      -26.1108867240      -24.0129179642  TIP3      6752            0.0000000000
     42576      6944  TIP3      H2             34.2596011718      -25.0221088335      -23.0704471525  TIP3      6752            0.0000000000
     42577      6945  TIP3      OH2            24.9617873166      -29.8313352516      -22.1491563156  TIP3      6753            0.0000000000
     42578      6945  TIP3      H1             24.7732580632      -30.3824337868      -22.9343415886  TIP3      6753            0.0000000000
     42579      6945  TIP3      H2             25.8127916031      -29.4546720269      -22.3898173583  TIP3      6753            0.0000000000
     42580      6946  TIP3      OH2            34.0430713292      -23.2086041304      -21.9045511312  TIP3      6754            0.0000000000
     42581      6946  TIP3      H1             33.8861424300      -23.2426990322      -20.9492534105  TIP3      6754            0.0000000000
     42582      6946  TIP3      H2             33.1477660340      -23.3767231315      -22.2391941317  TIP3      6754            0.0000000000
     42583      6947  TIP3      OH2            29.1979135628      -20.3945908361      -23.9905344988  TIP3      6755            0.0000000000
     42584      6947  TIP3      H1             28.8008171001      -20.7748218880      -23.1637983021  TIP3      6755            0.0000000000
     42585      6947  TIP3      H2             30.1188418919      -20.5521845577      -23.7613660928  TIP3      6755            0.0000000000
     42586      6948  TIP3      OH2            34.0345386516      -20.9709475572      -23.3376696124  TIP3      6756            0.0000000000
     42587      6948  TIP3      H1             34.1207442222      -21.6859733888      -22.6718437453  TIP3      6756            0.0000000000
     42588      6948  TIP3      H2             34.9373812586      -20.9302508803      -23.6967028068  TIP3      6756            0.0000000000
     42589      6949  TIP3      OH2            31.0453467714      -23.5123007552      -23.7356981144  TIP3      6757            0.0000000000
     42590      6949  TIP3      H1             30.6479252858      -23.6272015194      -22.8639950268  TIP3      6757            0.0000000000
     42591      6949  TIP3      H2             30.8865690997      -24.3658449492      -24.1956602724  TIP3      6757            0.0000000000
     42592      6950  TIP3      OH2            27.5251093742      -28.7313907244      -23.2758480362  TIP3      6758            0.0000000000
     42593      6950  TIP3      H1             27.1955031308      -28.4939619919      -24.1733257917  TIP3      6758            0.0000000000
     42594      6950  TIP3      H2             27.2590370376      -27.9724774153      -22.7341100201  TIP3      6758            0.0000000000
     42595      6951  TIP3      OH2           -36.6333844341      -31.1433273996      -23.2191744964  TIP3      6759            0.0000000000
     42596      6951  TIP3      H1            -35.9384825316      -30.6782708962      -23.7067669610  TIP3      6759            0.0000000000
     42597      6951  TIP3      H2            -37.2659374381      -31.2715013085      -23.9467572855  TIP3      6759            0.0000000000
     42598      6952  TIP3      OH2            30.6333048647      -18.7106176180      -21.0127701353  TIP3      6760            0.0000000000
     42599      6952  TIP3      H1             30.7572680353      -18.4100515889      -21.9233733259  TIP3      6760            0.0000000000
     42600      6952  TIP3      H2             29.7812517909      -19.1734673293      -21.0310227369  TIP3      6760            0.0000000000
     42601      6953  TIP3      OH2            23.5245008461      -19.2046018765      -22.6207094579  TIP3      6761            0.0000000000
     42602      6953  TIP3      H1             23.4176413088      -19.5588925719      -21.7339291647  TIP3      6761            0.0000000000
     42603      6953  TIP3      H2             23.9969788940      -19.9222883786      -23.0832400793  TIP3      6761            0.0000000000
     42604      6954  TIP3      OH2           -23.3924236530       -0.1366404721      -22.0995848154  TIP3      6762            0.0000000000
     42605      6954  TIP3      H1            -22.9948123880       -0.6433334428      -22.8463403468  TIP3      6762            0.0000000000
     42606      6954  TIP3      H2            -23.0564115389       -0.6536596441      -21.3552700283  TIP3      6762            0.0000000000
     42607      6955  TIP3      OH2           -22.3942385517       -7.3864999647      -22.5735477088  TIP3      6763            0.0000000000
     42608      6955  TIP3      H1            -22.5289916040       -8.0725580939      -23.2499342282  TIP3      6763            0.0000000000
     42609      6955  TIP3      H2            -21.4333334482       -7.3272298386      -22.5223455737  TIP3      6763            0.0000000000
     42610      6956  TIP3      OH2           -26.7498689287      -14.3773324416      -22.3713411953  TIP3      6764            0.0000000000
     42611      6956  TIP3      H1            -27.3727751686      -13.9493734006      -21.7815714590  TIP3      6764            0.0000000000
     42612      6956  TIP3      H2            -27.3220860117      -14.8080148462      -23.0186302620  TIP3      6764            0.0000000000
     42613      6957  TIP3      OH2           -30.3252193765      -13.2512698519      -23.1179628201  TIP3      6765            0.0000000000
     42614      6957  TIP3      H1            -31.1881330011      -13.0472501661      -23.5430722093  TIP3      6765            0.0000000000
     42615      6957  TIP3      H2            -29.9878813607      -12.3509514830      -22.8808649532  TIP3      6765            0.0000000000
     42616      6958  TIP3      OH2           -24.4219644505      -13.0328392427      -22.0009362499  TIP3      6766            0.0000000000
     42617      6958  TIP3      H1            -25.2487826507      -13.5678485832      -21.9933393163  TIP3      6766            0.0000000000
     42618      6958  TIP3      H2            -24.5933783575      -12.3951015045      -21.2684450249  TIP3      6766            0.0000000000
     42619      6959  TIP3      OH2           -25.8134900063       -4.8773941888      -21.4493330250  TIP3      6767            0.0000000000
     42620      6959  TIP3      H1            -26.5322555233       -4.3909266180      -21.0220071827  TIP3      6767            0.0000000000
     42621      6959  TIP3      H2            -25.9793927645       -5.7952735458      -21.2054197889  TIP3      6767            0.0000000000
     42622      6960  TIP3      OH2           -22.6282633486       -4.2450211076      -22.3547948942  TIP3      6768            0.0000000000
     42623      6960  TIP3      H1            -22.5956467945       -5.1334442394      -21.9701248465  TIP3      6768            0.0000000000
     42624      6960  TIP3      H2            -23.5682833777       -4.0530979477      -22.1977389637  TIP3      6768            0.0000000000
     42625      6961  TIP3      OH2           -18.1661541957       -0.0562051106      -21.4031688598  TIP3      6769            0.0000000000
     42626      6961  TIP3      H1            -18.0498245000        0.5946505692      -22.1272543396  TIP3      6769            0.0000000000
     42627      6961  TIP3      H2            -19.1275003431       -0.1578524926      -21.3609105412  TIP3      6769            0.0000000000
     42628      6962  TIP3      OH2           -28.6735643101       -3.5253327738      -23.5940074013  TIP3      6770            0.0000000000
     42629      6962  TIP3      H1            -28.7888552861       -3.8419277570      -24.5031557810  TIP3      6770            0.0000000000
     42630      6962  TIP3      H2            -28.9801542530       -4.3060747062      -23.0965358288  TIP3      6770            0.0000000000
     42631      6963  TIP3      OH2           -29.7226760249       -4.5745665923      -21.1510635945  TIP3      6771            0.0000000000
     42632      6963  TIP3      H1            -28.8219798113       -4.4812467254      -20.8246902327  TIP3      6771            0.0000000000
     42633      6963  TIP3      H2            -29.9794019730       -3.6496651362      -21.1824547694  TIP3      6771            0.0000000000
     42634      6964  TIP3      OH2           -27.3523462087       -2.7420124774      -20.8466744736  TIP3      6772            0.0000000000
     42635      6964  TIP3      H1            -27.4360118725       -1.8213082206      -21.1259524964  TIP3      6772            0.0000000000
     42636      6964  TIP3      H2            -26.3839992579       -2.8023418174      -20.8467794402  TIP3      6772            0.0000000000
     42637      6965  TIP3      OH2           -35.2223927101      -11.4039556500      -22.9265549196  TIP3      6773            0.0000000000
     42638      6965  TIP3      H1            -34.8896145516      -11.4357069520      -22.0246226660  TIP3      6773            0.0000000000
     42639      6965  TIP3      H2            -35.5757472293      -12.2994218712      -23.0468895511  TIP3      6773            0.0000000000
     42640      6966  TIP3      OH2           -26.6312877525       -1.3419752585      -23.7310474148  TIP3      6774            0.0000000000
     42641      6966  TIP3      H1            -27.0945016883       -2.2045621755      -23.7245305293  TIP3      6774            0.0000000000
     42642      6966  TIP3      H2            -25.8228639837       -1.5835110188      -24.2356869654  TIP3      6774            0.0000000000
     42643      6967  TIP3      OH2           -22.2176049642       -1.9388186179      -23.8516250136  TIP3      6775            0.0000000000
     42644      6967  TIP3      H1            -21.9532225933       -2.5698700104      -23.1589672652  TIP3      6775            0.0000000000
     42645      6967  TIP3      H2            -21.4630145698       -1.9756271122      -24.4714353487  TIP3      6775            0.0000000000
     42646      6968  TIP3      OH2           -25.6083273876       -4.6872409032      -24.3070465431  TIP3      6776            0.0000000000
     42647      6968  TIP3      H1            -25.8759211867       -4.8137537977      -23.3849960973  TIP3      6776            0.0000000000
     42648      6968  TIP3      H2            -25.5834381172       -5.6409594775      -24.5528874299  TIP3      6776            0.0000000000
     42649      6969  TIP3      OH2           -28.9775524692        0.1577365671      -21.6979142107  TIP3      6777            0.0000000000
     42650      6969  TIP3      H1            -28.0564800020        0.4208447152      -21.5784153803  TIP3      6777            0.0000000000
     42651      6969  TIP3      H2            -29.2176241455        0.7442481028      -22.4292524715  TIP3      6777            0.0000000000
     42652      6970  TIP3      OH2           -20.7495489100      -11.0943344317      -22.9369201311  TIP3      6778            0.0000000000
     42653      6970  TIP3      H1            -20.2359870521      -10.3391422424      -22.6274986323  TIP3      6778            0.0000000000
     42654      6970  TIP3      H2            -20.3299435944      -11.7869337973      -22.4081424872  TIP3      6778            0.0000000000
     42655      6971  TIP3      OH2           -26.1319632553        0.3400966806      -21.5890248296  TIP3      6779            0.0000000000
     42656      6971  TIP3      H1            -25.1734665794        0.2096471551      -21.7371455502  TIP3      6779            0.0000000000
     42657      6971  TIP3      H2            -26.4527106213       -0.2552239404      -22.2966767320  TIP3      6779            0.0000000000
     42658      6972  TIP3      OH2           -33.6867849153       -0.3127191538      -22.6695193801  TIP3      6780            0.0000000000
     42659      6972  TIP3      H1            -33.6677398223        0.0599435704      -21.7784105124  TIP3      6780            0.0000000000
     42660      6972  TIP3      H2            -32.9767700708       -0.9724798898      -22.6416748004  TIP3      6780            0.0000000000
     42661      6973  TIP3      OH2            -3.5764417652       -8.4684018213      -23.1820959556  TIP3      6781            0.0000000000
     42662      6973  TIP3      H1             -3.5730515988       -8.3411754659      -24.1460463909  TIP3      6781            0.0000000000
     42663      6973  TIP3      H2             -3.0081456488       -7.7199369972      -22.9331095481  TIP3      6781            0.0000000000
     42664      6974  TIP3      OH2            -7.9617916286      -14.4678381251      -22.3274176388  TIP3      6782            0.0000000000
     42665      6974  TIP3      H1             -8.4720245112      -14.4476361395      -21.5118548717  TIP3      6782            0.0000000000
     42666      6974  TIP3      H2             -8.1592187246      -15.3586125389      -22.6512435282  TIP3      6782            0.0000000000
     42667      6975  TIP3      OH2           -11.1603797991      -13.6989217714      -23.2205487463  TIP3      6783            0.0000000000
     42668      6975  TIP3      H1            -11.3381061643      -13.8779470340      -22.2737523042  TIP3      6783            0.0000000000
     42669      6975  TIP3      H2            -11.9678311392      -13.2236313687      -23.5131889597  TIP3      6783            0.0000000000
     42670      6976  TIP3      OH2            -5.3716771679      -14.2200782803      -21.6445783490  TIP3      6784            0.0000000000
     42671      6976  TIP3      H1             -6.3269841393      -14.2970791144      -21.8647162847  TIP3      6784            0.0000000000
     42672      6976  TIP3      H2             -5.2778834117      -13.2708075964      -21.4561431599  TIP3      6784            0.0000000000
     42673      6977  TIP3      OH2            -4.6990891076      -11.7245815096      -20.5333958245  TIP3      6785            0.0000000000
     42674      6977  TIP3      H1             -5.2780318043      -11.3579668559      -19.8446389220  TIP3      6785            0.0000000000
     42675      6977  TIP3      H2             -4.4844456496      -10.9553406722      -21.0788643714  TIP3      6785            0.0000000000
     42676      6978  TIP3      OH2             0.3738337347       -0.1066961071      -21.4985888550  TIP3      6786            0.0000000000
     42677      6978  TIP3      H1              1.1494274096       -0.6756103015      -21.5810775748  TIP3      6786            0.0000000000
     42678      6978  TIP3      H2              0.7448626483        0.7564105301      -21.2004037471  TIP3      6786            0.0000000000
     42679      6979  TIP3      OH2           -11.7206084280      -14.6383983462      -20.7534931776  TIP3      6787            0.0000000000
     42680      6979  TIP3      H1            -11.8737628377      -13.8342663765      -20.2269733113  TIP3      6787            0.0000000000
     42681      6979  TIP3      H2            -11.2104513721      -15.2119905113      -20.1586054269  TIP3      6787            0.0000000000
     42682      6980  TIP3      OH2           -15.8540010477      -11.4092303708      -22.8470109936  TIP3      6788            0.0000000000
     42683      6980  TIP3      H1            -16.6443472812      -10.9650664482      -22.4868609523  TIP3      6788            0.0000000000
     42684      6980  TIP3      H2            -15.9224166433      -12.3151467250      -22.4828960262  TIP3      6788            0.0000000000
     42685      6981  TIP3      OH2            -8.0969744862       -1.8660647666      -23.3330066050  TIP3      6789            0.0000000000
     42686      6981  TIP3      H1             -8.8414326866       -1.7477518483      -22.7217998948  TIP3      6789            0.0000000000
     42687      6981  TIP3      H2             -7.6159698034       -2.5507710572      -22.8361894230  TIP3      6789            0.0000000000
     42688      6982  TIP3      OH2           -12.6025738722       -6.4205310713      -23.9014345800  TIP3      6790            0.0000000000
     42689      6982  TIP3      H1            -12.4756676226       -6.4623889093      -22.9390515962  TIP3      6790            0.0000000000
     42690      6982  TIP3      H2            -11.6854976451       -6.2963668989      -24.2014984750  TIP3      6790            0.0000000000
     42691      6983  TIP3      OH2            -7.1337341487       -4.7121429919      -23.5536086030  TIP3      6791            0.0000000000
     42692      6983  TIP3      H1             -6.6838312082       -5.0629108796      -22.7456924671  TIP3      6791            0.0000000000
     42693      6983  TIP3      H2             -8.0701931464       -4.7631489578      -23.2939686461  TIP3      6791            0.0000000000
     42694      6984  TIP3      OH2           -11.0432192295       -8.7411629877      -21.5705523210  TIP3      6792            0.0000000000
     42695      6984  TIP3      H1            -10.7070877373       -8.0004038165      -21.0514673018  TIP3      6792            0.0000000000
     42696      6984  TIP3      H2            -10.4578683551       -9.4957675912      -21.3348182155  TIP3      6792            0.0000000000
     42697      6985  TIP3      OH2             0.2787791925      -15.2708169968      -21.9044185604  TIP3      6793            0.0000000000
     42698      6985  TIP3      H1              0.4172856571      -15.6906689675      -22.7838265894  TIP3      6793            0.0000000000
     42699      6985  TIP3      H2              1.1231294162      -15.5129598840      -21.4948674853  TIP3      6793            0.0000000000
     42700      6986  TIP3      OH2           -13.9723845591      -14.7217783829      -22.4531633535  TIP3      6794            0.0000000000
     42701      6986  TIP3      H1            -14.3040597430      -15.5947318204      -22.7131956241  TIP3      6794            0.0000000000
     42702      6986  TIP3      H2            -13.1099829229      -14.9401233431      -22.0554626688  TIP3      6794            0.0000000000
     42703      6987  TIP3      OH2            11.6936603763      -10.0817035467      -22.6887599375  TIP3      6795            0.0000000000
     42704      6987  TIP3      H1             12.2316452852       -9.7805086961      -21.9275653371  TIP3      6795            0.0000000000
     42705      6987  TIP3      H2             12.2328646459      -10.8585975582      -22.9687157711  TIP3      6795            0.0000000000
     42706      6988  TIP3      OH2            13.8630404625       -9.0258191842      -20.8998586291  TIP3      6796            0.0000000000
     42707      6988  TIP3      H1             14.2863089371       -8.5055248491      -20.2014400927  TIP3      6796            0.0000000000
     42708      6988  TIP3      H2             14.4423608107       -8.7981633016      -21.6512707579  TIP3      6796            0.0000000000
     42709      6989  TIP3      OH2            15.3161430205       -7.5668143376      -22.8046977754  TIP3      6797            0.0000000000
     42710      6989  TIP3      H1             14.9838127300       -7.7573698457      -23.7060814646  TIP3      6797            0.0000000000
     42711      6989  TIP3      H2             16.2621327741       -7.7552253250      -22.9566393207  TIP3      6797            0.0000000000
     42712      6990  TIP3      OH2             7.4888775147      -13.8734177758      -23.2689647099  TIP3      6798            0.0000000000
     42713      6990  TIP3      H1              7.1110021860      -14.1485509821      -22.4108678492  TIP3      6798            0.0000000000
     42714      6990  TIP3      H2              6.9169769469      -13.1060750923      -23.4902442976  TIP3      6798            0.0000000000
     42715      6991  TIP3      OH2             6.9917986133      -14.8226330486      -20.7945873198  TIP3      6799            0.0000000000
     42716      6991  TIP3      H1              6.8594044359      -14.3700313015      -19.9442323651  TIP3      6799            0.0000000000
     42717      6991  TIP3      H2              7.2206158935      -15.7314929817      -20.5397396479  TIP3      6799            0.0000000000
     42718      6992  TIP3      OH2             3.4517255635      -11.3487034878      -22.8511157683  TIP3      6800            0.0000000000
     42719      6992  TIP3      H1              3.5161265832      -11.0650160137      -21.9280514798  TIP3      6800            0.0000000000
     42720      6992  TIP3      H2              3.2365747515      -12.2945069443      -22.7812554084  TIP3      6800            0.0000000000
     42721      6993  TIP3      OH2            12.0861486799       -4.7014290283      -23.8153346934  TIP3      6801            0.0000000000
     42722      6993  TIP3      H1             12.4930239322       -4.5425792871      -22.9345029990  TIP3      6801            0.0000000000
     42723      6993  TIP3      H2             11.9012706668       -5.6583589926      -23.7966561465  TIP3      6801            0.0000000000
     42724      6994  TIP3      OH2            18.0127034120       -7.6040788520      -23.6026230768  TIP3      6802            0.0000000000
     42725      6994  TIP3      H1             17.8154592504       -7.8143054039      -24.5425636481  TIP3      6802            0.0000000000
     42726      6994  TIP3      H2             18.0663057926       -6.6135141506      -23.6050414900  TIP3      6802            0.0000000000
     42727      6995  TIP3      OH2            19.2964498855       -8.7676021209      -21.4349273157  TIP3      6803            0.0000000000
     42728      6995  TIP3      H1             18.5421694610       -8.5455358203      -22.0075142652  TIP3      6803            0.0000000000
     42729      6995  TIP3      H2             18.9492284666       -8.5954189224      -20.5407513017  TIP3      6803            0.0000000000
     42730      6996  TIP3      OH2            17.3983358893      -11.2186845296      -23.3479291106  TIP3      6804            0.0000000000
     42731      6996  TIP3      H1             18.0272968504      -10.6466302318      -23.8012863668  TIP3      6804            0.0000000000
     42732      6996  TIP3      H2             17.4157212294      -12.0317499253      -23.8631049426  TIP3      6804            0.0000000000
     42733      6997  TIP3      OH2             4.8805590923      -14.5068422137      -22.5139398635  TIP3      6805            0.0000000000
     42734      6997  TIP3      H1              4.9471166289      -15.3327027237      -23.0287104598  TIP3      6805            0.0000000000
     42735      6997  TIP3      H2              5.6263898046      -14.6400171752      -21.8924117979  TIP3      6805            0.0000000000
     42736      6998  TIP3      OH2            30.3128182189      -10.4445388293      -22.5674862989  TIP3      6806            0.0000000000
     42737      6998  TIP3      H1             30.5365659412       -9.5427606908      -22.3186971055  TIP3      6806            0.0000000000
     42738      6998  TIP3      H2             31.1113637426      -10.7606636161      -23.0501244211  TIP3      6806            0.0000000000
     42739      6999  TIP3      OH2            35.3348636614      -16.6413557231      -22.1772814186  TIP3      6807            0.0000000000
     42740      6999  TIP3      H1             35.2278581374      -17.3307403811      -21.4986539760  TIP3      6807            0.0000000000
     42741      6999  TIP3      H2             36.2848737883      -16.4267421140      -22.1180611436  TIP3      6807            0.0000000000
     42742      7000  TIP3      OH2            26.3710404447      -14.0917700725      -22.8565554458  TIP3      6808            0.0000000000
     42743      7000  TIP3      H1             26.3951650150      -14.2583702035      -21.8767014846  TIP3      6808            0.0000000000
     42744      7000  TIP3      H2             25.7747988760      -13.3421947369      -22.8560032351  TIP3      6808            0.0000000000
     42745      7001  TIP3      OH2            21.9118796755       -8.6356404618      -22.3038381910  TIP3      6809            0.0000000000
     42746      7001  TIP3      H1             22.1034760140       -8.5466918378      -21.3421025316  TIP3      6809            0.0000000000
     42747      7001  TIP3      H2             20.9365295264       -8.6062093636      -22.2294300841  TIP3      6809            0.0000000000
     42748      7002  TIP3      OH2            33.2337884214       -5.5726850498      -22.5073238950  TIP3      6810            0.0000000000
     42749      7002  TIP3      H1             33.0460088325       -4.6382614501      -22.3510665510  TIP3      6810            0.0000000000
     42750      7002  TIP3      H2             32.5123071671       -5.7267282944      -23.1429296975  TIP3      6810            0.0000000000
     42751      7003  TIP3      OH2            27.9339504998       -3.1584352971      -24.0444024137  TIP3      6811            0.0000000000
     42752      7003  TIP3      H1             27.2569332911       -3.4424519336      -24.6695385739  TIP3      6811            0.0000000000
     42753      7003  TIP3      H2             27.4148329857       -3.1934008478      -23.1989303029  TIP3      6811            0.0000000000
     42754      7004  TIP3      OH2            21.5193703531      -11.5921382175      -22.9310982717  TIP3      6812            0.0000000000
     42755      7004  TIP3      H1             22.0813599763      -10.9320676979      -22.4752387754  TIP3      6812            0.0000000000
     42756      7004  TIP3      H2             20.9417981107      -11.8445683190      -22.1972603205  TIP3      6812            0.0000000000
     42757      7005  TIP3      OH2            34.0637361117       -2.1462979904      -23.5188169327  TIP3      6813            0.0000000000
     42758      7005  TIP3      H1             34.8305078843       -2.4437351233      -22.9954912558  TIP3      6813            0.0000000000
     42759      7005  TIP3      H2             34.6105780995       -1.7820156926      -24.2619871262  TIP3      6813            0.0000000000
     42760      7006  TIP3      OH2            30.9808104728       -4.9099857761      -23.6854296199  TIP3      6814            0.0000000000
     42761      7006  TIP3      H1             30.1741776249       -4.5157363203      -23.3134564862  TIP3      6814            0.0000000000
     42762      7006  TIP3      H2             30.6985833494       -5.8470305505      -23.7907936816  TIP3      6814            0.0000000000
     42763      7007  TIP3      OH2            35.7901709059      -13.8341768252      -23.7540999298  TIP3      6815            0.0000000000
     42764      7007  TIP3      H1             36.5345351830      -14.0945119474      -23.1648057125  TIP3      6815            0.0000000000
     42765      7007  TIP3      H2             35.2105642804      -14.5786211261      -23.5570681529  TIP3      6815            0.0000000000
     42766      7008  TIP3      OH2            23.0885231583        0.0120811878      -22.4805607220  TIP3      6816            0.0000000000
     42767      7008  TIP3      H1             22.6304112177       -0.6363981607      -21.9196941093  TIP3      6816            0.0000000000
     42768      7008  TIP3      H2             23.8140372455       -0.5358595132      -22.8123194551  TIP3      6816            0.0000000000
     42769      7009  TIP3      OH2           -25.7789158499        8.5525520096      -22.7448366267  TIP3      6817            0.0000000000
     42770      7009  TIP3      H1            -25.4892147110        8.7770345572      -21.8394006993  TIP3      6817            0.0000000000
     42771      7009  TIP3      H2            -25.8456620153        7.5901377915      -22.6828292386  TIP3      6817            0.0000000000
     42772      7010  TIP3      OH2           -19.0491150828       15.8263240180      -22.4989375657  TIP3      6818            0.0000000000
     42773      7010  TIP3      H1            -18.7865920892       16.4315469284      -21.7732689764  TIP3      6818            0.0000000000
     42774      7010  TIP3      H2            -18.2670194983       15.2376261422      -22.4221802218  TIP3      6818            0.0000000000
     42775      7011  TIP3      OH2           -22.7814067854       11.1482284827      -22.8141136402  TIP3      6819            0.0000000000
     42776      7011  TIP3      H1            -22.7163684237       11.1659679062      -23.7858143732  TIP3      6819            0.0000000000
     42777      7011  TIP3      H2            -21.8613263679       11.2776006046      -22.5445683195  TIP3      6819            0.0000000000
     42778      7012  TIP3      OH2           -27.2680444981        4.4592230245      -23.0965238167  TIP3      6820            0.0000000000
     42779      7012  TIP3      H1            -27.2454948767        4.5368387241      -22.1383124583  TIP3      6820            0.0000000000
     42780      7012  TIP3      H2            -27.1863887508        3.4975260777      -23.2266198095  TIP3      6820            0.0000000000
     42781      7013  TIP3      OH2           -25.8075389197       13.7530463655      -21.3306293619  TIP3      6821            0.0000000000
     42782      7013  TIP3      H1            -26.1543668138       14.4269875358      -20.7390154689  TIP3      6821            0.0000000000
     42783      7013  TIP3      H2            -26.0459468331       12.9282820164      -20.8906456016  TIP3      6821            0.0000000000
     42784      7014  TIP3      OH2           -28.6477980269       15.7148989672      -23.5662002607  TIP3      6822            0.0000000000
     42785      7014  TIP3      H1            -28.7274952204       15.2156642774      -24.3973424301  TIP3      6822            0.0000000000
     42786      7014  TIP3      H2            -29.1781713774       15.1519965087      -22.9809436001  TIP3      6822            0.0000000000
     42787      7015  TIP3      OH2           -29.8695416078       14.4602903514      -21.1001502247  TIP3      6823            0.0000000000
     42788      7015  TIP3      H1            -29.0056699568       14.0844019074      -20.8991472677  TIP3      6823            0.0000000000
     42789      7015  TIP3      H2            -29.8553124530       15.2194100596      -20.4976470453  TIP3      6823            0.0000000000
     42790      7016  TIP3      OH2           -32.9899163385       14.7153292489      -22.1343600744  TIP3      6824            0.0000000000
     42791      7016  TIP3      H1            -32.5780272727       14.5160816057      -21.2875644791  TIP3      6824            0.0000000000
     42792      7016  TIP3      H2            -32.4220077147       14.1947631208      -22.7258645137  TIP3      6824            0.0000000000
     42793      7017  TIP3      OH2           -26.5837352654       17.4673382460      -23.7195516394  TIP3      6825            0.0000000000
     42794      7017  TIP3      H1            -27.2302271979       16.7179047943      -23.6612995374  TIP3      6825            0.0000000000
     42795      7017  TIP3      H2            -25.8054867177       17.0158385112      -24.1309613871  TIP3      6825            0.0000000000
     42796      7018  TIP3      OH2           -22.0939435315       16.8062106778      -23.6618330923  TIP3      6826            0.0000000000
     42797      7018  TIP3      H1            -21.5563378336       16.3378688736      -23.0000863963  TIP3      6826            0.0000000000
     42798      7018  TIP3      H2            -21.4088212508       16.9334728485      -24.3546022114  TIP3      6826            0.0000000000
     42799      7019  TIP3      OH2           -31.2885094570       13.0543163256      -23.7753128508  TIP3      6827            0.0000000000
     42800      7019  TIP3      H1            -31.2799513330       12.1171400185      -23.5382726808  TIP3      6827            0.0000000000
     42801      7019  TIP3      H2            -30.3876561337       13.1533197257      -24.1590398376  TIP3      6827            0.0000000000
     42802      7020  TIP3      OH2           -25.4155765748       13.9159385397      -24.0355485922  TIP3      6828            0.0000000000
     42803      7020  TIP3      H1            -25.5331214409       13.7746856562      -23.0677655428  TIP3      6828            0.0000000000
     42804      7020  TIP3      H2            -25.6724271228       13.0290592648      -24.3532867453  TIP3      6828            0.0000000000
     42805      7021  TIP3      OH2           -28.8132955199        9.0228132504      -23.4860143301  TIP3      6829            0.0000000000
     42806      7021  TIP3      H1            -28.9900115460        9.2831108815      -24.4146181755  TIP3      6829            0.0000000000
     42807      7021  TIP3      H2            -27.8802130583        9.2736425701      -23.3892777186  TIP3      6829            0.0000000000
     42808      7022  TIP3      OH2           -19.6951718229       10.9546870210      -23.7061127729  TIP3      6830            0.0000000000
     42809      7022  TIP3      H1            -19.8634912197       10.8121969030      -24.6589138019  TIP3      6830            0.0000000000
     42810      7022  TIP3      H2            -19.6193611587       11.9344839198      -23.6849355759  TIP3      6830            0.0000000000
     42811      7023  TIP3      OH2           -18.3950516017        9.9764891154      -21.4648624760  TIP3      6831            0.0000000000
     42812      7023  TIP3      H1            -18.5587058089       10.2963487854      -22.3738941530  TIP3      6831            0.0000000000
     42813      7023  TIP3      H2            -19.2268562413       10.2401780827      -21.0460193800  TIP3      6831            0.0000000000
     42814      7024  TIP3      OH2           -19.8667731694        7.0699600870      -22.8239787965  TIP3      6832            0.0000000000
     42815      7024  TIP3      H1            -19.9143977995        8.0321666609      -22.8997429714  TIP3      6832            0.0000000000
     42816      7024  TIP3      H2            -20.8054935689        6.8225179629      -22.8029523436  TIP3      6832            0.0000000000
     42817      7025  TIP3      OH2           -25.9042175444       18.8557018178      -21.5122379800  TIP3      6833            0.0000000000
     42818      7025  TIP3      H1            -25.1458286820       18.3684496083      -21.8553633062  TIP3      6833            0.0000000000
     42819      7025  TIP3      H2            -26.6344321684       18.2952050792      -21.8082081730  TIP3      6833            0.0000000000
     42820      7026  TIP3      OH2           -33.6694406628       18.5995790886      -22.7488761321  TIP3      6834            0.0000000000
     42821      7026  TIP3      H1            -34.2613031869       19.2564845645      -22.3023937342  TIP3      6834            0.0000000000
     42822      7026  TIP3      H2            -33.6218738535       17.8948530340      -22.0900575034  TIP3      6834            0.0000000000
     42823      7027  TIP3      OH2            -7.0760311257        8.8426099880      -22.7480973618  TIP3      6835            0.0000000000
     42824      7027  TIP3      H1             -6.9540693225        8.7635977330      -21.7888624575  TIP3      6835            0.0000000000
     42825      7027  TIP3      H2             -6.4203153118        8.1715229125      -23.0504946654  TIP3      6835            0.0000000000
     42826      7028  TIP3      OH2             0.3179221229       15.4725914459      -22.4081595056  TIP3      6836            0.0000000000
     42827      7028  TIP3      H1              0.5423603510       16.4067177563      -22.2288833344  TIP3      6836            0.0000000000
     42828      7028  TIP3      H2              0.7928948213       14.9901407460      -21.7172323133  TIP3      6836            0.0000000000
     42829      7029  TIP3      OH2            -4.9090734224       18.3797704127      -21.9345003467  TIP3      6837            0.0000000000
     42830      7029  TIP3      H1             -4.8394908375       17.5866520582      -22.4891508763  TIP3      6837            0.0000000000
     42831      7029  TIP3      H2             -4.5052396595       18.0849386168      -21.1112287738  TIP3      6837            0.0000000000
     42832      7030  TIP3      OH2            -3.3797207038       11.1921813862      -22.3712009853  TIP3      6838            0.0000000000
     42833      7030  TIP3      H1             -3.6022876630       11.1485209866      -23.3122938106  TIP3      6838            0.0000000000
     42834      7030  TIP3      H2             -2.4003253666       11.1329364348      -22.4331883464  TIP3      6838            0.0000000000
     42835      7031  TIP3      OH2            -3.7988483689       14.3899286471      -22.1660516547  TIP3      6839            0.0000000000
     42836      7031  TIP3      H1             -3.7072196600       13.7710668313      -21.4328418559  TIP3      6839            0.0000000000
     42837      7031  TIP3      H2             -4.5128983138       13.9698756343      -22.6920858479  TIP3      6839            0.0000000000
     42838      7032  TIP3      OH2             0.5463310358       18.2512810305      -21.9273235020  TIP3      6840            0.0000000000
     42839      7032  TIP3      H1              1.0722668237       19.0624845443      -21.8986866398  TIP3      6840            0.0000000000
     42840      7032  TIP3      H2             -0.2485429519       18.5366411844      -21.4358581565  TIP3      6840            0.0000000000
     42841      7033  TIP3      OH2            -9.6060814497       15.0118013321      -23.5370650304  TIP3      6841            0.0000000000
     42842      7033  TIP3      H1             -9.9190712499       14.9292909114      -24.4534664475  TIP3      6841            0.0000000000
     42843      7033  TIP3      H2            -10.1457446642       14.3131828873      -23.1339971262  TIP3      6841            0.0000000000
     42844      7034  TIP3      OH2           -11.5235634130        4.8535881261      -21.2487296562  TIP3      6842            0.0000000000
     42845      7034  TIP3      H1            -11.5625613051        5.8144417692      -21.0945447856  TIP3      6842            0.0000000000
     42846      7034  TIP3      H2            -11.6172894229        4.4968244653      -20.3621658535  TIP3      6842            0.0000000000
     42847      7035  TIP3      OH2            -7.8704466482       17.1651729880      -23.7312661688  TIP3      6843            0.0000000000
     42848      7035  TIP3      H1             -8.3438289605       16.3091630748      -23.6827557504  TIP3      6843            0.0000000000
     42849      7035  TIP3      H2             -7.0646389846       16.9160697361      -24.2324683237  TIP3      6843            0.0000000000
     42850      7036  TIP3      OH2            -3.3392915091       16.7442027231      -23.6623398319  TIP3      6844            0.0000000000
     42851      7036  TIP3      H1             -3.0658887438       16.1202353273      -22.9615663961  TIP3      6844            0.0000000000
     42852      7036  TIP3      H2             -2.5549705919       16.7898836287      -24.2390831138  TIP3      6844            0.0000000000
     42853      7037  TIP3      OH2            -6.2730758577       13.9612861516      -23.5606948064  TIP3      6845            0.0000000000
     42854      7037  TIP3      H1             -6.9145322262       14.0750474280      -22.8543599994  TIP3      6845            0.0000000000
     42855      7037  TIP3      H2             -6.5063007182       13.0646156557      -23.8909448732  TIP3      6845            0.0000000000
     42856      7038  TIP3      OH2           -10.0533389040        8.6621285296      -23.1384372512  TIP3      6846            0.0000000000
     42857      7038  TIP3      H1            -10.6912079083        9.3764690880      -23.3279660406  TIP3      6846            0.0000000000
     42858      7038  TIP3      H2             -9.1876366405        9.1022483872      -23.2127303560  TIP3      6846            0.0000000000
     42859      7039  TIP3      OH2            -0.7170721105       11.2381932577      -23.4152596389  TIP3      6847            0.0000000000
     42860      7039  TIP3      H1             -0.9666611615       11.0094916991      -24.3337299221  TIP3      6847            0.0000000000
     42861      7039  TIP3      H2             -0.6288399139       12.2196365495      -23.4763729139  TIP3      6847            0.0000000000
     42862      7040  TIP3      OH2           -16.9826725432       13.8580760768      -22.5632261524  TIP3      6848            0.0000000000
     42863      7040  TIP3      H1            -16.3731850235       13.2376017796      -22.1193156537  TIP3      6848            0.0000000000
     42864      7040  TIP3      H2            -17.1315862330       13.3830299842      -23.4109586951  TIP3      6848            0.0000000000
     42865      7041  TIP3      OH2            -1.1633244219        7.2049596193      -22.9096115864  TIP3      6849            0.0000000000
     42866      7041  TIP3      H1             -0.9191559921        7.8990486695      -23.5353688170  TIP3      6849            0.0000000000
     42867      7041  TIP3      H2             -1.5040634379        6.4845629599      -23.4703549900  TIP3      6849            0.0000000000
     42868      7042  TIP3      OH2            -2.0220256262        4.4431751021      -23.6619422003  TIP3      6850            0.0000000000
     42869      7042  TIP3      H1             -1.3401902514        3.7838903877      -23.8645144507  TIP3      6850            0.0000000000
     42870      7042  TIP3      H2             -2.8272836679        3.9081839215      -23.6922793378  TIP3      6850            0.0000000000
     42871      7043  TIP3      OH2            18.6667305584       16.0451188506      -22.8718916626  TIP3      6851            0.0000000000
     42872      7043  TIP3      H1             18.9526841182       16.9610524764      -22.7149708804  TIP3      6851            0.0000000000
     42873      7043  TIP3      H2             19.4313357333       15.5652229086      -22.5052597660  TIP3      6851            0.0000000000
     42874      7044  TIP3      OH2             7.8291453100        5.5688850228      -23.0496636806  TIP3      6852            0.0000000000
     42875      7044  TIP3      H1              7.4462810135        4.9935917236      -22.3577417244  TIP3      6852            0.0000000000
     42876      7044  TIP3      H2              7.0336491792        5.8928907614      -23.5172472402  TIP3      6852            0.0000000000
     42877      7045  TIP3      OH2             2.6788816111        5.3180388517      -20.3384606427  TIP3      6853            0.0000000000
     42878      7045  TIP3      H1              3.1464333369        4.7395797288      -20.9725756734  TIP3      6853            0.0000000000
     42879      7045  TIP3      H2              1.8054913066        4.9019528348      -20.3155675649  TIP3      6853            0.0000000000
     42880      7046  TIP3      OH2             6.1688786031        8.3038539638      -22.0121338704  TIP3      6854            0.0000000000
     42881      7046  TIP3      H1              5.9496018976        7.5134083730      -22.5194300340  TIP3      6854            0.0000000000
     42882      7046  TIP3      H2              7.0817308324        8.4651290243      -22.3423257646  TIP3      6854            0.0000000000
     42883      7047  TIP3      OH2            19.5471320488       18.5492288179      -21.9427093986  TIP3      6855            0.0000000000
     42884      7047  TIP3      H1             20.4453004334       18.3186298794      -21.6546617229  TIP3      6855            0.0000000000
     42885      7047  TIP3      H2             19.1357834193       18.6350817594      -21.0700523264  TIP3      6855            0.0000000000
     42886      7048  TIP3      OH2             8.9047778645       15.4700316846      -23.8374438303  TIP3      6856            0.0000000000
     42887      7048  TIP3      H1              8.9678040156       14.6204644558      -24.3048153720  TIP3      6856            0.0000000000
     42888      7048  TIP3      H2              8.5635933433       15.1965805662      -22.9510630668  TIP3      6856            0.0000000000
     42889      7049  TIP3      OH2             8.1504888593       14.7280890277      -21.3178528059  TIP3      6857            0.0000000000
     42890      7049  TIP3      H1              8.3687294318       13.8920427705      -20.8836451063  TIP3      6857            0.0000000000
     42891      7049  TIP3      H2              7.9669392773       15.2692442904      -20.5412209006  TIP3      6857            0.0000000000
     42892      7050  TIP3      OH2            11.3400058047       16.5512539487      -20.5943207930  TIP3      6858            0.0000000000
     42893      7050  TIP3      H1             10.8400515084       16.6596198160      -19.7775602366  TIP3      6858            0.0000000000
     42894      7050  TIP3      H2             10.8436319195       17.0401678185      -21.2552762966  TIP3      6858            0.0000000000
     42895      7051  TIP3      OH2             6.6023555905        4.2225914100      -20.7386178774  TIP3      6859            0.0000000000
     42896      7051  TIP3      H1              6.0796753744        3.8711023203      -19.9819488709  TIP3      6859            0.0000000000
     42897      7051  TIP3      H2              6.9787507783        4.9936814296      -20.2937257094  TIP3      6859            0.0000000000
     42898      7052  TIP3      OH2            10.8514360382       17.3513874247      -23.7060219707  TIP3      6860            0.0000000000
     42899      7052  TIP3      H1             10.1548094343       16.6560748201      -23.7138879400  TIP3      6860            0.0000000000
     42900      7052  TIP3      H2             11.6328300613       16.8311825436      -23.9557749474  TIP3      6860            0.0000000000
     42901      7053  TIP3      OH2             6.3895634913       12.7341716204      -23.5810388378  TIP3      6861            0.0000000000
     42902      7053  TIP3      H1              6.3406811501       12.9292042148      -22.6224331864  TIP3      6861            0.0000000000
     42903      7053  TIP3      H2              7.3245587787       12.5277010105      -23.7444484128  TIP3      6861            0.0000000000
     42904      7054  TIP3      OH2             7.4377109413       11.0747002657      -21.1800698873  TIP3      6862            0.0000000000
     42905      7054  TIP3      H1              6.5621983144       11.0151935863      -21.5839561416  TIP3      6862            0.0000000000
     42906      7054  TIP3      H2              8.0159302644       10.6843985452      -21.8425775856  TIP3      6862            0.0000000000
     42907      7055  TIP3      OH2             8.5954715005        9.1370173780      -23.3514096894  TIP3      6863            0.0000000000
     42908      7055  TIP3      H1              8.1988652375        9.1880320452      -24.2478873329  TIP3      6863            0.0000000000
     42909      7055  TIP3      H2              9.5152880598        9.3729155513      -23.4995590905  TIP3      6863            0.0000000000
     42910      7056  TIP3      OH2             9.2005755547       19.3900833362      -21.5750199193  TIP3      6864            0.0000000000
     42911      7056  TIP3      H1              9.6959780431       18.9304241381      -22.2704180132  TIP3      6864            0.0000000000
     42912      7056  TIP3      H2              8.8521850248       20.1595767440      -22.0874189110  TIP3      6864            0.0000000000
     42913      7057  TIP3      OH2            17.8106766266        8.0327354154      -23.3449850407  TIP3      6865            0.0000000000
     42914      7057  TIP3      H1             18.1800494835        8.1478564009      -24.2477204461  TIP3      6865            0.0000000000
     42915      7057  TIP3      H2             18.3866337727        7.3568411575      -22.9509951465  TIP3      6865            0.0000000000
     42916      7058  TIP3      OH2             4.4086591714        3.9476044212      -22.3337648027  TIP3      6866            0.0000000000
     42917      7058  TIP3      H1              4.4034337385        3.1369427241      -22.8792978264  TIP3      6866            0.0000000000
     42918      7058  TIP3      H2              5.2287586145        3.8339514030      -21.8082648480  TIP3      6866            0.0000000000
     42919      7059  TIP3      OH2             3.6609008396       18.0730339558      -23.4989716689  TIP3      6867            0.0000000000
     42920      7059  TIP3      H1              3.4986858139       17.9329522822      -22.5533681066  TIP3      6867            0.0000000000
     42921      7059  TIP3      H2              4.4094653685       17.4644192053      -23.6632344818  TIP3      6867            0.0000000000
     42922      7060  TIP3      OH2            30.5345926708        8.9292551084      -22.4723414851  TIP3      6868            0.0000000000
     42923      7060  TIP3      H1             31.2798215499        9.1001792806      -21.8673916972  TIP3      6868            0.0000000000
     42924      7060  TIP3      H2             30.7318608940        8.0270969668      -22.7807180030  TIP3      6868            0.0000000000
     42925      7061  TIP3      OH2            32.9768028292        9.8130302097      -20.8424506620  TIP3      6869            0.0000000000
     42926      7061  TIP3      H1             33.2746253121       10.4733227606      -20.2058035221  TIP3      6869            0.0000000000
     42927      7061  TIP3      H2             33.4934895116       10.1001154363      -21.6306619050  TIP3      6869            0.0000000000
     42928      7062  TIP3      OH2            36.5655501647        2.7072054728      -21.1743200313  TIP3      6870            0.0000000000
     42929      7062  TIP3      H1             36.0405943119        3.4969386863      -21.3653485306  TIP3      6870            0.0000000000
     42930      7062  TIP3      H2             37.3814643016        2.9239782630      -21.6488235407  TIP3      6870            0.0000000000
     42931      7063  TIP3      OH2            33.0431056207       18.3592199210      -22.2476898584  TIP3      6871            0.0000000000
     42932      7063  TIP3      H1             33.5255718848       17.7031295841      -22.8167687305  TIP3      6871            0.0000000000
     42933      7063  TIP3      H2             32.4211426081       17.7801548031      -21.8049894116  TIP3      6871            0.0000000000
     42934      7064  TIP3      OH2            34.3146034671       11.0287275147      -22.8513601073  TIP3      6872            0.0000000000
     42935      7064  TIP3      H1             33.6941316944       11.1684116902      -23.5840142293  TIP3      6872            0.0000000000
     42936      7064  TIP3      H2             34.5419923613       11.9435242094      -22.6200167734  TIP3      6872            0.0000000000
     42937      7065  TIP3      OH2            29.8234873111        4.4081747601      -22.3125862778  TIP3      6873            0.0000000000
     42938      7065  TIP3      H1             29.1928421993        5.0779350239      -22.0061544816  TIP3      6873            0.0000000000
     42939      7065  TIP3      H2             29.1668341042        3.7852265194      -22.6731612997  TIP3      6873            0.0000000000
     42940      7066  TIP3      OH2            25.0056396612        7.9556798013      -22.2721244850  TIP3      6874            0.0000000000
     42941      7066  TIP3      H1             25.1974217171        7.1232987617      -22.7373536517  TIP3      6874            0.0000000000
     42942      7066  TIP3      H2             25.8218985309        8.4296262371      -22.5164825467  TIP3      6874            0.0000000000
     42943      7067  TIP3      OH2            30.0107065820       14.0921202550      -21.6783095180  TIP3      6875            0.0000000000
     42944      7067  TIP3      H1             29.7961583240       14.7821166875      -21.0119098103  TIP3      6875            0.0000000000
     42945      7067  TIP3      H2             29.2617687309       13.4794303091      -21.5886538088  TIP3      6875            0.0000000000
     42946      7068  TIP3      OH2            33.1918016558       13.9135262971      -23.5862043660  TIP3      6876            0.0000000000
     42947      7068  TIP3      H1             33.2627432445       13.9378165880      -22.5996436265  TIP3      6876            0.0000000000
     42948      7068  TIP3      H2             32.2395521122       13.7657312906      -23.6800708270  TIP3      6876            0.0000000000
     42949      7069  TIP3      OH2            28.0273697502       15.3982136978      -23.7277626640  TIP3      6877            0.0000000000
     42950      7069  TIP3      H1             27.6750486150       15.0841792118      -24.5723192925  TIP3      6877            0.0000000000
     42951      7069  TIP3      H2             27.6255728272       14.7576524966      -23.1307478345  TIP3      6877            0.0000000000
     42952      7070  TIP3      OH2            29.0742390432       16.4550986708      -20.7019740283  TIP3      6878            0.0000000000
     42953      7070  TIP3      H1             28.3629818638       16.5110447541      -21.3594600615  TIP3      6878            0.0000000000
     42954      7070  TIP3      H2             29.7670593357       17.0190441388      -21.0973832271  TIP3      6878            0.0000000000
     42955      7071  TIP3      OH2            23.6302030284       14.1614366015      -22.0976295318  TIP3      6879            0.0000000000
     42956      7071  TIP3      H1             23.7672987031       15.0103116088      -21.6667411759  TIP3      6879            0.0000000000
     42957      7071  TIP3      H2             24.3043867968       14.1327476756      -22.7871269513  TIP3      6879            0.0000000000
     42958      7072  TIP3      OH2            22.0498379371        7.3375069944      -23.1801770310  TIP3      6880            0.0000000000
     42959      7072  TIP3      H1             22.8488347455        7.6237926939      -22.7044658067  TIP3      6880            0.0000000000
     42960      7072  TIP3      H2             21.3786164818        7.8380360055      -22.6987870130  TIP3      6880            0.0000000000
     42961      7073  TIP3      OH2            30.0331813307       17.4086523826      -23.7451183319  TIP3      6881            0.0000000000
     42962      7073  TIP3      H1             29.4867793665       16.5834593624      -23.7325805152  TIP3      6881            0.0000000000
     42963      7073  TIP3      H2             30.8666617297       17.0966363973      -24.1741143684  TIP3      6881            0.0000000000
     42964      7074  TIP3      OH2            34.4655863976       16.6647088884      -23.5792134135  TIP3      6882            0.0000000000
     42965      7074  TIP3      H1             35.0509311742       16.1759305343      -22.9432924744  TIP3      6882            0.0000000000
     42966      7074  TIP3      H2             35.1137494364       16.7663174311      -24.3133175355  TIP3      6882            0.0000000000
     42967      7075  TIP3      OH2            30.6106456608       13.9759460056      -24.4345220378  TIP3      6883            0.0000000000
     42968      7075  TIP3      H1             30.1324786388       13.9148898885      -23.5813421558  TIP3      6883            0.0000000000
     42969      7075  TIP3      H2             30.7719410456       13.0159291994      -24.6227020087  TIP3      6883            0.0000000000
     42970      7076  TIP3      OH2            27.4968791161        8.9558019169      -23.3739699121  TIP3      6884            0.0000000000
     42971      7076  TIP3      H1             27.1684078902        9.1749165312      -24.2682710670  TIP3      6884            0.0000000000
     42972      7076  TIP3      H2             28.4484719960        9.0933496595      -23.4744062140  TIP3      6884            0.0000000000
     42973      7077  TIP3      OH2            20.9508775504       14.4626459905      -22.8019049108  TIP3      6885            0.0000000000
     42974      7077  TIP3      H1             21.8523053139       14.3690903482      -22.4340355776  TIP3      6885            0.0000000000
     42975      7077  TIP3      H2             20.8202037165       13.6044996837      -23.2490287462  TIP3      6885            0.0000000000
     42976      7078  TIP3      OH2            36.0666228270        7.2966704449      -23.1114400975  TIP3      6886            0.0000000000
     42977      7078  TIP3      H1             35.8745902110        7.5183730164      -24.0485585483  TIP3      6886            0.0000000000
     42978      7078  TIP3      H2             35.8628447592        6.3466935235      -23.0979269105  TIP3      6886            0.0000000000
     42979      7079  TIP3      OH2            36.0928913609        4.3726418424      -23.4752533985  TIP3      6887            0.0000000000
     42980      7079  TIP3      H1             36.2960433476        4.0160020926      -24.3546098846  TIP3      6887            0.0000000000
     42981      7079  TIP3      H2             35.1104726372        4.2588419801      -23.4920082688  TIP3      6887            0.0000000000
     42982      7080  TIP3      OH2            30.3848457516       18.8286717390      -21.5905497535  TIP3      6888            0.0000000000
     42983      7080  TIP3      H1             31.0536025226       19.4017522496      -22.0030712815  TIP3      6888            0.0000000000
     42984      7080  TIP3      H2             30.0003772462       18.4253277749      -22.4022210895  TIP3      6888            0.0000000000
     42985      7081  TIP3      OH2           -26.1150645887       27.5603887471      -22.3284788180  TIP3      6889            0.0000000000
     42986      7081  TIP3      H1            -25.9095379335       26.9967632469      -21.5725589051  TIP3      6889            0.0000000000
     42987      7081  TIP3      H2            -25.4358259757       27.2479227534      -22.9588032603  TIP3      6889            0.0000000000
     42988      7082  TIP3      OH2           -18.4940349353       34.8254836042      -22.8892597821  TIP3      6890            0.0000000000
     42989      7082  TIP3      H1            -18.2357963553       35.7192666026      -23.1862879555  TIP3      6890            0.0000000000
     42990      7082  TIP3      H2            -17.6861534557       34.5074037509      -22.4551202208  TIP3      6890            0.0000000000
     42991      7083  TIP3      OH2           -30.1789533917       23.7366282942      -23.0198281906  TIP3      6891            0.0000000000
     42992      7083  TIP3      H1            -30.5201998907       23.1772012809      -22.2940313002  TIP3      6891            0.0000000000
     42993      7083  TIP3      H2            -30.9221156301       24.3373336659      -23.1819180792  TIP3      6891            0.0000000000
     42994      7084  TIP3      OH2           -35.1349323828       24.0911307944      -20.9543191327  TIP3      6892            0.0000000000
     42995      7084  TIP3      H1            -34.6952637759       24.4574959119      -21.7494006226  TIP3      6892            0.0000000000
     42996      7084  TIP3      H2            -36.0453628137       23.9785402187      -21.2912188760  TIP3      6892            0.0000000000
     42997      7085  TIP3      OH2           -31.3240485289       26.5820676835      -22.0548354365  TIP3      6893            0.0000000000
     42998      7085  TIP3      H1            -31.7062249400       26.5282451002      -22.9424674033  TIP3      6893            0.0000000000
     42999      7085  TIP3      H2            -30.4024929163       26.8368751105      -22.2594194036  TIP3      6893            0.0000000000
     43000      7086  TIP3      OH2           -24.0161600652       24.3811974129      -22.0255589532  TIP3      6894            0.0000000000
     43001      7086  TIP3      H1            -24.9169944543       24.4649111906      -21.6934673424  TIP3      6894            0.0000000000
     43002      7086  TIP3      H2            -23.5640351839       25.0864150946      -21.5117242498  TIP3      6894            0.0000000000
     43003      7087  TIP3      OH2           -34.6258504910       29.1434047623      -22.2277050558  TIP3      6895            0.0000000000
     43004      7087  TIP3      H1            -34.0969269231       29.8574308696      -21.8424933087  TIP3      6895            0.0000000000
     43005      7087  TIP3      H2            -35.4782500188       29.2980342928      -21.7985255854  TIP3      6895            0.0000000000
     43006      7088  TIP3      OH2           -28.7724118473       34.1649426581      -23.8931154203  TIP3      6896            0.0000000000
     43007      7088  TIP3      H1            -29.5157278453       33.5755034924      -24.1456545493  TIP3      6896            0.0000000000
     43008      7088  TIP3      H2            -28.8995729647       34.1412627443      -22.9195857235  TIP3      6896            0.0000000000
     43009      7089  TIP3      OH2           -29.8564799152       33.4354043977      -21.2218464650  TIP3      6897            0.0000000000
     43010      7089  TIP3      H1            -29.3549730359       32.9312451065      -20.5671869245  TIP3      6897            0.0000000000
     43011      7089  TIP3      H2            -29.9617532215       34.3082844720      -20.7668910129  TIP3      6897            0.0000000000
     43012      7090  TIP3      OH2           -27.2651034265       34.9098761460      -20.6115253976  TIP3      6898            0.0000000000
     43013      7090  TIP3      H1            -28.0541779299       35.4752301787      -20.6598105559  TIP3      6898            0.0000000000
     43014      7090  TIP3      H2            -26.6063418904       35.4886397992      -20.1842365599  TIP3      6898            0.0000000000
     43015      7091  TIP3      OH2           -29.9049281947       36.0561981877      -20.8835424922  TIP3      6899            0.0000000000
     43016      7091  TIP3      H1            -30.4935954771       35.8997786311      -21.6552622926  TIP3      6899            0.0000000000
     43017      7091  TIP3      H2            -30.3946032341       36.8232671865      -20.4975221946  TIP3      6899            0.0000000000
     43018      7092  TIP3      OH2           -32.8479554202       33.2385303832      -21.6953749640  TIP3      6900            0.0000000000
     43019      7092  TIP3      H1            -33.1485569742       33.9963353496      -21.1745070647  TIP3      6900            0.0000000000
     43020      7092  TIP3      H2            -31.9290785439       33.1491954185      -21.3945814592  TIP3      6900            0.0000000000
     43021      7093  TIP3      OH2           -34.5385105475       26.2709338642      -22.9396199807  TIP3      6901            0.0000000000
     43022      7093  TIP3      H1            -34.3273219295       27.1946614286      -22.7131328981  TIP3      6901            0.0000000000
     43023      7093  TIP3      H2            -35.4764334486       26.3283820249      -23.2362080447  TIP3      6901            0.0000000000
     43024      7094  TIP3      OH2           -26.5119342150       36.1414554005      -23.6508391154  TIP3      6902            0.0000000000
     43025      7094  TIP3      H1            -27.1565051319       35.4292610149      -23.6968257108  TIP3      6902            0.0000000000
     43026      7094  TIP3      H2            -25.7545126813       35.7151533540      -24.0988643642  TIP3      6902            0.0000000000
     43027      7095  TIP3      OH2           -22.0003305536       35.3693059693      -23.5401785425  TIP3      6903            0.0000000000
     43028      7095  TIP3      H1            -21.8004254680       35.5376798500      -22.6074742640  TIP3      6903            0.0000000000
     43029      7095  TIP3      H2            -21.1526797825       35.4872755708      -24.0229283923  TIP3      6903            0.0000000000
     43030      7096  TIP3      OH2           -30.8430641041       31.6125243870      -24.1057324560  TIP3      6904            0.0000000000
     43031      7096  TIP3      H1            -31.0217248897       31.4239505129      -23.1656572034  TIP3      6904            0.0000000000
     43032      7096  TIP3      H2            -30.5085333934       30.7727390188      -24.4593084759  TIP3      6904            0.0000000000
     43033      7097  TIP3      OH2           -29.9687552300       29.5074565639      -20.9253596068  TIP3      6905            0.0000000000
     43034      7097  TIP3      H1            -30.7252975832       28.9860145167      -20.6285470436  TIP3      6905            0.0000000000
     43035      7097  TIP3      H2            -29.6363939871       28.9421007336      -21.6418171115  TIP3      6905            0.0000000000
     43036      7098  TIP3      OH2           -29.1264983547       27.7584415929      -22.9900245967  TIP3      6906            0.0000000000
     43037      7098  TIP3      H1            -29.5143418324       27.9100184112      -23.8824446508  TIP3      6906            0.0000000000
     43038      7098  TIP3      H2            -28.1771320359       27.6569185413      -23.1843952302  TIP3      6906            0.0000000000
     43039      7099  TIP3      OH2           -18.8904910670       22.5502810410      -21.7519308683  TIP3      6907            0.0000000000
     43040      7099  TIP3      H1            -18.3843198723       22.4546322011      -22.5584277107  TIP3      6907            0.0000000000
     43041      7099  TIP3      H2            -18.3425417288       23.1667191979      -21.2325953078  TIP3      6907            0.0000000000
     43042      7100  TIP3      OH2           -35.0291950068       20.6263213349      -21.4761204379  TIP3      6908            0.0000000000
     43043      7100  TIP3      H1            -34.6672759469       21.4674506393      -21.7950067645  TIP3      6908            0.0000000000
     43044      7100  TIP3      H2            -35.8231691585       20.9255384795      -21.0129671212  TIP3      6908            0.0000000000
     43045      7101  TIP3      OH2           -33.2670735982       22.6599138564      -22.5022254284  TIP3      6909            0.0000000000
     43046      7101  TIP3      H1            -32.9364302563       21.8551531215      -22.9412788011  TIP3      6909            0.0000000000
     43047      7101  TIP3      H2            -32.9180076833       22.5621843529      -21.6042208441  TIP3      6909            0.0000000000
     43048      7102  TIP3      OH2            -7.6109904829       27.8580376152      -23.1275161852  TIP3      6910            0.0000000000
     43049      7102  TIP3      H1             -7.7120275165       28.3288113472      -22.2784091190  TIP3      6910            0.0000000000
     43050      7102  TIP3      H2             -7.0753426104       27.0906847680      -22.8849107142  TIP3      6910            0.0000000000
     43051      7103  TIP3      OH2            -1.2454812641       20.2450575317      -20.8115237313  TIP3      6911            0.0000000000
     43052      7103  TIP3      H1             -1.8907618019       20.7675412955      -20.3276736429  TIP3      6911            0.0000000000
     43053      7103  TIP3      H2             -0.6084821092       20.9461180241      -21.0834166871  TIP3      6911            0.0000000000
     43054      7104  TIP3      OH2             0.2238720071       34.7234333695      -21.9752917007  TIP3      6912            0.0000000000
     43055      7104  TIP3      H1              0.2258519608       35.3884410641      -22.6944002122  TIP3      6912            0.0000000000
     43056      7104  TIP3      H2              1.1180507729       34.3459210189      -22.0709678471  TIP3      6912            0.0000000000
     43057      7105  TIP3      OH2            -8.0312591274       23.5239358684      -22.6326305893  TIP3      6913            0.0000000000
     43058      7105  TIP3      H1             -8.1261820338       23.8484490849      -21.7262920669  TIP3      6913            0.0000000000
     43059      7105  TIP3      H2             -8.5889786362       22.7297422266      -22.6118107580  TIP3      6913            0.0000000000
     43060      7106  TIP3      OH2           -11.7347601805       24.2913983995      -23.4175209343  TIP3      6914            0.0000000000
     43061      7106  TIP3      H1            -12.0509989359       23.6466019382      -22.7564968950  TIP3      6914            0.0000000000
     43062      7106  TIP3      H2            -12.3538061685       25.0211644316      -23.2675410752  TIP3      6914            0.0000000000
     43063      7107  TIP3      OH2           -17.1255056494       24.5370440046      -20.8232158597  TIP3      6915            0.0000000000
     43064      7107  TIP3      H1            -16.5124512179       25.0632069295      -21.3758693223  TIP3      6915            0.0000000000
     43065      7107  TIP3      H2            -16.9698808385       24.8726603807      -19.9312572691  TIP3      6915            0.0000000000
     43066      7108  TIP3      OH2           -15.4526128237       29.8316908649      -21.9964360077  TIP3      6916            0.0000000000
     43067      7108  TIP3      H1            -14.8609037183       29.6124001523      -21.2499964847  TIP3      6916            0.0000000000
     43068      7108  TIP3      H2            -15.7678026651       30.6900229770      -21.6553965844  TIP3      6916            0.0000000000
     43069      7109  TIP3      OH2           -12.6743040608       23.0823860406      -21.2023994221  TIP3      6917            0.0000000000
     43070      7109  TIP3      H1            -12.7253908413       23.9226285041      -20.6759986519  TIP3      6917            0.0000000000
     43071      7109  TIP3      H2            -11.7178284183       22.9365925667      -21.1142208476  TIP3      6917            0.0000000000
     43072      7110  TIP3      OH2           -15.6289270703       26.4264306297      -22.4826058844  TIP3      6918            0.0000000000
     43073      7110  TIP3      H1            -15.1447607171       27.2085341055      -22.1654201562  TIP3      6918            0.0000000000
     43074      7110  TIP3      H2            -16.3609025822       26.8124440950      -22.9825800618  TIP3      6918            0.0000000000
     43075      7111  TIP3      OH2            -2.9319718772       35.7986461711      -23.5308405901  TIP3      6919            0.0000000000
     43076      7111  TIP3      H1             -2.3357342225       35.3467815650      -22.9141565802  TIP3      6919            0.0000000000
     43077      7111  TIP3      H2             -2.4900802621       35.6097174229      -24.3909372258  TIP3      6919            0.0000000000
     43078      7112  TIP3      OH2           -12.4730665370       31.5186463050      -23.8961240155  TIP3      6920            0.0000000000
     43079      7112  TIP3      H1            -12.4401930795       31.2222613886      -22.9588020864  TIP3      6920            0.0000000000
     43080      7112  TIP3      H2            -11.5399920704       31.3747282832      -24.1735704341  TIP3      6920            0.0000000000
     43081      7113  TIP3      OH2           -11.4187122831       29.7630292654      -21.2969995045  TIP3      6921            0.0000000000
     43082      7113  TIP3      H1            -12.0529004933       29.0960733042      -20.9547077638  TIP3      6921            0.0000000000
     43083      7113  TIP3      H2            -10.8373103530       29.1883577569      -21.8378666799  TIP3      6921            0.0000000000
     43084      7114  TIP3      OH2           -10.3995544328       28.1753078540      -23.2112435640  TIP3      6922            0.0000000000
     43085      7114  TIP3      H1            -10.8250661186       28.1386844394      -24.0837109058  TIP3      6922            0.0000000000
     43086      7114  TIP3      H2             -9.4545003568       28.0562726035      -23.4124132688  TIP3      6922            0.0000000000
     43087      7115  TIP3      OH2            -0.6693704808       30.3176138516      -23.2424073718  TIP3      6923            0.0000000000
     43088      7115  TIP3      H1             -0.7199228043       29.7993063109      -24.0665680650  TIP3      6923            0.0000000000
     43089      7115  TIP3      H2             -0.7305080101       31.2340958552      -23.5876083147  TIP3      6923            0.0000000000
     43090      7116  TIP3      OH2            -1.9240533045       23.0313558170      -24.2730247386  TIP3      6924            0.0000000000
     43091      7116  TIP3      H1             -1.9672118759       23.8633680334      -23.7778337914  TIP3      6924            0.0000000000
     43092      7116  TIP3      H2             -2.8720183466       22.8738544735      -24.4267562501  TIP3      6924            0.0000000000
     43093      7117  TIP3      OH2            -0.0318946140       22.3314425575      -21.8342503731  TIP3      6925            0.0000000000
     43094      7117  TIP3      H1              0.1927291527       21.9542417337      -22.7172686837  TIP3      6925            0.0000000000
     43095      7117  TIP3      H2              0.0995693078       23.2779590854      -21.9573614247  TIP3      6925            0.0000000000
     43096      7118  TIP3      OH2            19.1952407086       35.2141381428      -21.9195200717  TIP3      6926            0.0000000000
     43097      7118  TIP3      H1             19.5906364622       35.7460896635      -22.6461977892  TIP3      6926            0.0000000000
     43098      7118  TIP3      H2             19.6752106472       34.3693834811      -22.0403299563  TIP3      6926            0.0000000000
     43099      7119  TIP3      OH2             7.6640376370       23.9295579313      -23.3499698951  TIP3      6927            0.0000000000
     43100      7119  TIP3      H1              7.2533278527       23.8286541501      -22.4719105284  TIP3      6927            0.0000000000
     43101      7119  TIP3      H2              6.9731956511       24.3573905682      -23.8731306634  TIP3      6927            0.0000000000
     43102      7120  TIP3      OH2             6.1589920658       25.9165532890      -21.6729489985  TIP3      6928            0.0000000000
     43103      7120  TIP3      H1              5.7015205018       26.1152994522      -22.5047921484  TIP3      6928            0.0000000000
     43104      7120  TIP3      H2              7.0696006127       26.1708264173      -21.9170580676  TIP3      6928            0.0000000000
     43105      7121  TIP3      OH2             3.0905405816       29.2511613271      -22.0941060603  TIP3      6929            0.0000000000
     43106      7121  TIP3      H1              3.5666497147       29.9150245798      -21.5584640386  TIP3      6929            0.0000000000
     43107      7121  TIP3      H2              2.1884141387       29.5973923452      -22.1423238069  TIP3      6929            0.0000000000
     43108      7122  TIP3      OH2             8.8390346172       33.0931917178      -24.2537451066  TIP3      6930            0.0000000000
     43109      7122  TIP3      H1              9.2491179151       33.8464152616      -24.7045506674  TIP3      6930            0.0000000000
     43110      7122  TIP3      H2              9.0505974105       33.2916982978      -23.3185891209  TIP3      6930            0.0000000000
     43111      7123  TIP3      OH2             9.7641730210       34.2245660287      -21.9058381210  TIP3      6931            0.0000000000
     43112      7123  TIP3      H1              9.3880927658       34.2008161928      -21.0054140217  TIP3      6931            0.0000000000
     43113      7123  TIP3      H2             10.6708394679       34.4934850400      -21.6924648965  TIP3      6931            0.0000000000
     43114      7124  TIP3      OH2             7.6267221269       36.0114054652      -20.1518885245  TIP3      6932            0.0000000000
     43115      7124  TIP3      H1              6.9316517342       35.7843751269      -20.8028984202  TIP3      6932            0.0000000000
     43116      7124  TIP3      H2              7.7523912633       35.1272201552      -19.7528926713  TIP3      6932            0.0000000000
     43117      7125  TIP3      OH2             6.3388996390       23.2068115012      -21.1072227688  TIP3      6933            0.0000000000
     43118      7125  TIP3      H1              6.0677732023       24.1324935355      -20.9135701531  TIP3      6933            0.0000000000
     43119      7125  TIP3      H2              6.8384530835       22.9934663345      -20.3121894236  TIP3      6933            0.0000000000
     43120      7126  TIP3      OH2             2.8730020633       26.1391044395      -22.4531737734  TIP3      6934            0.0000000000
     43121      7126  TIP3      H1              3.1491864751       27.0586544590      -22.2821562065  TIP3      6934            0.0000000000
     43122      7126  TIP3      H2              1.9414951110       26.2048272840      -22.7107276902  TIP3      6934            0.0000000000
     43123      7127  TIP3      OH2            10.5304215369       35.3137487805      -24.6716507681  TIP3      6935            0.0000000000
     43124      7127  TIP3      H1             10.2246310806       35.0625311188      -23.7888651791  TIP3      6935            0.0000000000
     43125      7127  TIP3      H2             11.1741874799       35.9926130741      -24.3289205073  TIP3      6935            0.0000000000
     43126      7128  TIP3      OH2             8.5993424099       26.9054431026      -23.0663707779  TIP3      6936            0.0000000000
     43127      7128  TIP3      H1              9.4248347968       27.2712260076      -23.4071472317  TIP3      6936            0.0000000000
     43128      7128  TIP3      H2              9.0424478321       26.3378890193      -22.3882281753  TIP3      6936            0.0000000000
     43129      7129  TIP3      OH2            18.0577564121       30.1196925648      -23.4743517296  TIP3      6937            0.0000000000
     43130      7129  TIP3      H1             17.6236818659       30.0684817457      -24.3407958947  TIP3      6937            0.0000000000
     43131      7129  TIP3      H2             17.5814294193       30.8705305553      -23.0784513948  TIP3      6937            0.0000000000
     43132      7130  TIP3      OH2             2.5797871608       33.4778285340      -22.9875059958  TIP3      6938            0.0000000000
     43133      7130  TIP3      H1              3.2867852013       33.1419185952      -22.4095754435  TIP3      6938            0.0000000000
     43134      7130  TIP3      H2              2.2630355992       32.6653509932      -23.4305846481  TIP3      6938            0.0000000000
     43135      7131  TIP3      OH2            19.5248249362       29.1950014871      -21.4695098003  TIP3      6939            0.0000000000
     43136      7131  TIP3      H1             19.1378630498       29.5467312145      -22.3150733571  TIP3      6939            0.0000000000
     43137      7131  TIP3      H2             19.5621549729       29.9857315995      -20.9344283253  TIP3      6939            0.0000000000
     43138      7132  TIP3      OH2             2.6122467485       20.9086668633      -20.9328010156  TIP3      6940            0.0000000000
     43139      7132  TIP3      H1              2.9715666696       21.4877596431      -21.6303912977  TIP3      6940            0.0000000000
     43140      7132  TIP3      H2              2.3080317243       21.5133380570      -20.2336353174  TIP3      6940            0.0000000000
     43141      7133  TIP3      OH2             4.2999634974       22.6442159915      -22.6885329752  TIP3      6941            0.0000000000
     43142      7133  TIP3      H1              4.6341003232       21.8989114560      -23.2364376620  TIP3      6941            0.0000000000
     43143      7133  TIP3      H2              5.0534208886       22.7600993184      -22.0650169853  TIP3      6941            0.0000000000
     43144      7134  TIP3      OH2            34.0844394826       29.4248385745      -23.3452798701  TIP3      6942            0.0000000000
     43145      7134  TIP3      H1             34.0881332907       29.2487838692      -24.3078518592  TIP3      6942            0.0000000000
     43146      7134  TIP3      H2             34.8081914353       28.8771579359      -23.0511933984  TIP3      6942            0.0000000000
     43147      7135  TIP3      OH2            29.7632790364       23.2974492520      -22.9715733163  TIP3      6943            0.0000000000
     43148      7135  TIP3      H1             30.3284996581       23.1139121888      -22.2057688058  TIP3      6943            0.0000000000
     43149      7135  TIP3      H2             29.0759142469       22.5877582791      -22.9619150179  TIP3      6943            0.0000000000
     43150      7136  TIP3      OH2            22.0743398234       29.0491185020      -22.2922456558  TIP3      6944            0.0000000000
     43151      7136  TIP3      H1             22.6007405157       29.1562832035      -21.4969090159  TIP3      6944            0.0000000000
     43152      7136  TIP3      H2             21.1575934333       29.0698953493      -21.9299522540  TIP3      6944            0.0000000000
     43153      7137  TIP3      OH2            28.3054134656       34.0689049433      -23.7206828295  TIP3      6945            0.0000000000
     43154      7137  TIP3      H1             28.4020072459       33.1070628934      -23.6159445378  TIP3      6945            0.0000000000
     43155      7137  TIP3      H2             28.9457791923       34.3432970625      -23.0040831680  TIP3      6945            0.0000000000
     43156      7138  TIP3      OH2            26.3503698462       33.3949799371      -21.1424687743  TIP3      6946            0.0000000000
     43157      7138  TIP3      H1             27.1605905254       33.8482103879      -20.7969323883  TIP3      6946            0.0000000000
     43158      7138  TIP3      H2             25.8294195786       34.2126511147      -21.2547320288  TIP3      6946            0.0000000000
     43159      7139  TIP3      OH2            25.4195788717       36.0605239218      -20.6106547264  TIP3      6947            0.0000000000
     43160      7139  TIP3      H1             26.1115919695       36.5125550802      -21.1188549026  TIP3      6947            0.0000000000
     43161      7139  TIP3      H2             25.9292532915       35.8682700014      -19.8141215535  TIP3      6947            0.0000000000
     43162      7140  TIP3      OH2            23.4295785071       33.1214815288      -21.8392274209  TIP3      6948            0.0000000000
     43163      7140  TIP3      H1             23.3885485254       34.0242472917      -21.4693218811  TIP3      6948            0.0000000000
     43164      7140  TIP3      H2             24.3257389888       33.0743713201      -22.2079715812  TIP3      6948            0.0000000000
     43165      7141  TIP3      OH2            21.9879607328       25.9672309420      -22.4701442775  TIP3      6949            0.0000000000
     43166      7141  TIP3      H1             22.4228475837       26.8240463578      -22.3780389448  TIP3      6949            0.0000000000
     43167      7141  TIP3      H2             21.5310163008       25.8656934161      -21.6011748837  TIP3      6949            0.0000000000
     43168      7142  TIP3      OH2            30.3478083273       36.3040338846      -23.8429575659  TIP3      6950            0.0000000000
     43169      7142  TIP3      H1             29.5842685731       35.7495668807      -24.0623444823  TIP3      6950            0.0000000000
     43170      7142  TIP3      H2             30.5197287487       36.0258186377      -22.9207700536  TIP3      6950            0.0000000000
     43171      7143  TIP3      OH2            33.9740491120       34.6274276956      -23.7029566519  TIP3      6951            0.0000000000
     43172      7143  TIP3      H1             33.6606049091       34.7880935040      -22.7935526016  TIP3      6951            0.0000000000
     43173      7143  TIP3      H2             34.7855388032       35.1907609551      -23.6860222411  TIP3      6951            0.0000000000
     43174      7144  TIP3      OH2            25.1443744682       31.7264580412      -23.8915450082  TIP3      6952            0.0000000000
     43175      7144  TIP3      H1             25.2040542294       31.0178243904      -23.2417094521  TIP3      6952            0.0000000000
     43176      7144  TIP3      H2             26.0659477123       31.9349395047      -24.0510423149  TIP3      6952            0.0000000000
     43177      7145  TIP3      OH2            20.7121822929       33.0028278572      -22.6841967065  TIP3      6953            0.0000000000
     43178      7145  TIP3      H1             21.6486013335       32.8550219014      -22.4379036796  TIP3      6953            0.0000000000
     43179      7145  TIP3      H2             20.5199726969       32.3236075439      -23.3668204962  TIP3      6953            0.0000000000
     43180      7146  TIP3      OH2            36.2109255065       25.9904649836      -23.0472418503  TIP3      6954            0.0000000000
     43181      7146  TIP3      H1             35.9660492669       25.6607699755      -23.9379420403  TIP3      6954            0.0000000000
     43182      7146  TIP3      H2             35.5594973787       25.5636611029      -22.4747627160  TIP3      6954            0.0000000000
     43183      7147  POT       POT           -23.5588436967      -10.7191488774       36.6234130407  IONS      1               1.0000000000
     43184      7148  POT       POT            25.6105618901        6.3780774974       34.2859384230  IONS      2               1.0000000000
     43185      7149  POT       POT           -34.1840820140       32.9737924469      -34.5050026684  IONS      3               1.0000000000
     43186      7150  POT       POT            18.6077764093       -3.0856515442       26.6778391753  IONS      4               1.0000000000
     43187      7151  POT       POT             3.7627220072        9.0605414189      -36.2753150191  IONS      5               1.0000000000
     43188      7152  POT       POT           -13.3433632534       32.4680153461      -26.3532485690  IONS      6               1.0000000000
     43189      7153  POT       POT            21.1276024806      -15.9517633617       33.7350128364  IONS      7               1.0000000000
     43190      7154  POT       POT            21.3301425839       -6.9715631661       21.4652481303  IONS      8               1.0000000000
     43191      7155  POT       POT           -32.3718207450       27.3955835226       28.6551297332  IONS      9               1.0000000000
     43192      7156  POT       POT            33.0000695814        2.9026311063      -29.1705982353  IONS      10              1.0000000000
     43193      7157  POT       POT             6.2843178916       13.3324430442       27.9394238757  IONS      11              1.0000000000
     43194      7158  POT       POT            21.8847367549      -29.5861606578      -38.7222632044  IONS      12              1.0000000000
     43195      7159  POT       POT            23.3307518941        6.1072505001       41.6631170271  IONS      13              1.0000000000
     43196      7160  POT       POT           -36.7807849178      -29.0841234540       39.0223873710  IONS      14              1.0000000000
     43197      7161  POT       POT             6.6638908671      -23.3015254228       38.0458223988  IONS      15              1.0000000000
     43198      7162  POT       POT            -4.4301524295      -36.4455677706      -26.0155257703  IONS      16              1.0000000000
     43199      7163  POT       POT             6.5417368901      -34.7303662889       39.3586345535  IONS      17              1.0000000000
     43200      7164  POT       POT           -32.5035053312        7.6107064675      -27.4205217682  IONS      18              1.0000000000
     43201      7165  POT       POT            35.1548783352       21.5938528673       27.4124655660  IONS      19              1.0000000000
     43202      7166  POT       POT           -26.4597878036       20.4634302612      -23.6888876526  IONS      20              1.0000000000
     43203      7167  POT       POT            17.8158998638        6.0648224520       37.2915555549  IONS      21              1.0000000000
     43204      7168  POT       POT           -29.5585961868      -19.8655754293      -27.0372178479  IONS      22              1.0000000000
     43205      7169  POT       POT           -26.2426729782       35.8939055354      -31.9900301689  IONS      23              1.0000000000
     43206      7170  POT       POT           -14.1606619588      -31.0291879635      -39.3264116926  IONS      24              1.0000000000
     43207      7171  POT       POT            21.9037887654      -36.1930308612       39.0299712442  IONS      25              1.0000000000
     43208      7172  POT       POT           -25.8409660806      -25.1715509230      -34.0815010941  IONS      26              1.0000000000
     43209      7173  POT       POT           -24.1246156859       17.7508841446       38.3455180191  IONS      27              1.0000000000
     43210      7174  POT       POT           -26.2288194615       11.3176487165       41.8409201751  IONS      28              1.0000000000
     43211      7175  POT       POT            24.3907302763       24.7612636145       34.2563284960  IONS      29              1.0000000000
     43212      7176  POT       POT            10.0182946686        8.4753564839      -30.9180997245  IONS      30              1.0000000000
     43213      7177  POT       POT             4.5574321987      -28.7566201306       26.7567247421  IONS      31              1.0000000000
     43214      7178  POT       POT           -31.8299910758       33.0718451831       36.8661280598  IONS      32              1.0000000000
     43215      7179  POT       POT           -31.9330365178        5.7546402526       33.9647604860  IONS      33              1.0000000000
     43216      7180  POT       POT           -35.9346309116       -8.0837073123      -29.6070636343  IONS      34              1.0000000000
     43217      7181  POT       POT           -21.9912742235        4.0567522469       22.8577953763  IONS      35              1.0000000000
     43218      7182  POT       POT            30.8728918432       34.5007971740       29.3164908511  IONS      36              1.0000000000
     43219      7183  POT       POT            21.6016532628      -10.3301827826       41.4773851305  IONS      37              1.0000000000
     43220      7184  CLA       CLA            -0.6595671232       -2.4526611335      -32.7813244279  IONS      38             -1.0000000000
     43221      7185  CLA       CLA            -3.4707668347      -16.9152316922       40.3956527914  IONS      39             -1.0000000000
     43222      7186  CLA       CLA           -13.2041820122       30.6969318194       31.0735551161  IONS      40             -1.0000000000
     43223      7187  CLA       CLA            28.6808173570      -22.9975926060       31.5936839788  IONS      41             -1.0000000000
     43224      7188  CLA       CLA            -1.4502528139       -3.4441728911      -26.6939901944  IONS      42             -1.0000000000
     43225      7189  CLA       CLA            -9.6333881561       17.5117517141      -35.7320013900  IONS      43             -1.0000000000
     43226      7190  CLA       CLA           -25.3875701973      -31.6423170590      -22.1633707023  IONS      44             -1.0000000000
     43227      7191  CLA       CLA            17.6238116586       19.3213437344       32.8623491846  IONS      45             -1.0000000000
     43228      7192  CLA       CLA            30.3356374325        5.4709812708      -35.0539136625  IONS      46             -1.0000000000
     43229      7193  CLA       CLA           -29.3152501622      -34.7954493992       42.0201452895  IONS      47             -1.0000000000
     43230      7194  CLA       CLA            11.6789883354      -21.6164350688       33.7341751396  IONS      48             -1.0000000000
     43231      7195  CLA       CLA            32.4864366726      -29.4554500044       36.0514762390  IONS      49             -1.0000000000
     43232      7196  CLA       CLA            23.9174938285        9.5764413641      -25.5648808434  IONS      50             -1.0000000000
     43233      7197  CLA       CLA           -23.3314141442       31.9966849200      -25.1895639342  IONS      51             -1.0000000000
     43234      7198  CLA       CLA            18.3414151749       -3.3074831885      -35.4708387831  IONS      52             -1.0000000000
     43235      7199  CLA       CLA           -20.3398999260      -17.4787144065       32.0935763409  IONS      53             -1.0000000000
     43236      7200  CLA       CLA           -21.3854047616      -28.4930806273       31.6928045787  IONS      54             -1.0000000000
