* GENERATED BY CHARMM-GUI (HTTP://WWW.CHARMM-GUI.ORG) V3.7 ON OCT, 22. 2024. JOB
* GET A DIFFERENT CONFORMATION FOR LIPIDS PENETRATING PROTEIN / CHOL
*  DATE:    10/22/24      9:45: 1      CREATED BY USER: apache
*
       306  EXT
         1         1  TIP3      OH2             2.4736418244        1.4252853801       19.6549800000  TIP3      1               0.0000000000
         2         1  TIP3      H1              1.6845225410        1.3067879985       20.1836400000  TIP3      1               0.0000000000
         3         1  TIP3      H2              2.1798832358        1.2966000748       18.7531100000  TIP3      1               0.0000000000
         4         2  TIP3      OH2            -3.4580727282        1.0248975737       19.8549700000  TIP3      2               0.0000000000
         5         2  TIP3      H1             -3.1486635804        0.6277901155       20.6691000000  TIP3      2               0.0000000000
         6         2  TIP3      H2             -2.7094187076        0.9692487265       19.2611300000  TIP3      2               0.0000000000
         7         3  TIP3      OH2             0.4655255379        1.4250842373       21.3285100000  TIP3      3               0.0000000000
         8         3  TIP3      H1              0.1035997438        0.7505300351       21.9031700000  TIP3      3               0.0000000000
         9         3  TIP3      H2              0.2324791841        2.2513250111       21.7518800000  TIP3      3               0.0000000000
        10         4  TIP3      OH2             4.1829776612        8.5114480577       20.1598150000  TIP3      4               0.0000000000
        11         4  TIP3      H1              4.3404312881        7.8689742470       20.8516750000  TIP3      4               0.0000000000
        12         4  TIP3      H2              4.8113615267        9.2118784458       20.3352250000  TIP3      4               0.0000000000
        13         5  TIP3      OH2             0.9339191137      -14.2354509524       20.4983950000  TIP3      5               0.0000000000
        14         5  TIP3      H1              0.2648053835      -14.3183564172       21.1778550000  TIP3      5               0.0000000000
        15         5  TIP3      H2              1.1699643213      -15.1376611091       20.2826850000  TIP3      5               0.0000000000
        16         6  TIP3      OH2            12.9492036364       10.6715008780       19.0978600000  TIP3      6               0.0000000000
        17         6  TIP3      H1             12.7211752715       11.3152973642       18.4272100000  TIP3      6               0.0000000000
        18         6  TIP3      H2             13.4634250367       10.0118863834       18.6323400000  TIP3      6               0.0000000000
        19         7  TIP3      OH2            11.1156380897        9.2016590157       21.8096000000  TIP3      7               0.0000000000
        20         7  TIP3      H1             10.3193488102        8.7578270491       22.1014400000  TIP3      7               0.0000000000
        21         7  TIP3      H2             11.4222948011        8.6809341965       21.0672800000  TIP3      7               0.0000000000
        22         8  TIP3      OH2             9.0874853739       11.0802354458       21.4138400000  TIP3      8               0.0000000000
        23         8  TIP3      H1              9.8681969124       10.6567385052       21.7707400000  TIP3      8               0.0000000000
        24         8  TIP3      H2              8.9423450877       10.6464640542       20.5730000000  TIP3      8               0.0000000000
        25         9  TIP3      OH2            11.4040305528        7.5763728818       19.7280500000  TIP3      9               0.0000000000
        26         9  TIP3      H1             10.8312762109        7.0035535201       20.2380100000  TIP3      9               0.0000000000
        27         9  TIP3      H2             11.4734881815        7.1482763371       18.8747300000  TIP3      9               0.0000000000
        28        10  TIP3      OH2            -5.4707474857      -11.2259687766       20.1693950000  TIP3      10              0.0000000000
        29        10  TIP3      H1             -6.2296127231      -11.3167928820       20.7456850000  TIP3      10              0.0000000000
        30        10  TIP3      H2             -4.7176557606      -11.2414258297       20.7600250000  TIP3      10              0.0000000000
        31        11  TIP3      OH2            -5.3130040000      -16.1592280274       20.1186950000  TIP3      11              0.0000000000
        32        11  TIP3      H1             -4.5713088253      -15.6619271460       20.4633850000  TIP3      11              0.0000000000
        33        11  TIP3      H2             -5.6976035253      -15.5871925253       19.4545350000  TIP3      11              0.0000000000
        34        12  TIP3      OH2             5.9599385641       18.7945075194       20.3517400000  TIP3      12              0.0000000000
        35        12  TIP3      H1              5.3227995032       18.1911627725       19.9692900000  TIP3      12              0.0000000000
        36        12  TIP3      H2              5.6621611860       19.6624335319       20.0792100000  TIP3      12              0.0000000000
        37        13  TIP3      OH2             1.7100643378       15.7105200853       20.9382400000  TIP3      13              0.0000000000
        38        13  TIP3      H1              1.0433322971       15.0574181033       20.7257200000  TIP3      13              0.0000000000
        39        13  TIP3      H2              1.2458299354       16.3673035793       21.4572300000  TIP3      13              0.0000000000
        40        14  TIP3      OH2             3.9146915178       14.2071253394       21.0997200000  TIP3      14              0.0000000000
        41        14  TIP3      H1              3.1057376808       14.7148584650       21.0361300000  TIP3      14              0.0000000000
        42        14  TIP3      H2              4.0604497176       13.8759460719       20.2135500000  TIP3      14              0.0000000000
        43        15  TIP3      OH2             3.4393694151       17.6936941347       21.7333300000  TIP3      15              0.0000000000
        44        15  TIP3      H1              3.6494459957       18.3606241907       21.0796400000  TIP3      15              0.0000000000
        45        15  TIP3      H2              2.9395377680       17.0345974951       21.2516800000  TIP3      15              0.0000000000
        46        16  TIP3      OH2            -3.2073008375      -20.1600573771       19.9192950000  TIP3      16              0.0000000000
        47        16  TIP3      H1             -3.1786381718      -21.1162697088       19.9518550000  TIP3      16              0.0000000000
        48        16  TIP3      H2             -2.3307127169      -19.9032959716       19.6331050000  TIP3      16              0.0000000000
        49        17  TIP3      OH2             9.7859154040      -17.1260977970       20.0233800000  TIP3      17              0.0000000000
        50        17  TIP3      H1             10.3952227875      -16.4828827196       19.6611100000  TIP3      17              0.0000000000
        51        17  TIP3      H2              9.3720132065      -16.6762747614       20.7599900000  TIP3      17              0.0000000000
        52        18  TIP3      OH2             6.6149935981      -20.1635927855       20.3937500000  TIP3      18              0.0000000000
        53        18  TIP3      H1              7.4621343823      -19.9888132903       19.9838300000  TIP3      18              0.0000000000
        54        18  TIP3      H2              6.1351921183      -20.6768849130       19.7437000000  TIP3      18              0.0000000000
        55        19  TIP3      OH2            18.7451429277      -11.4678831140       20.1705850000  TIP3      19              0.0000000000
        56        19  TIP3      H1             19.6427085152      -11.7930963871       20.2401250000  TIP3      19              0.0000000000
        57        19  TIP3      H2             18.2033083677      -12.2569650282       20.1705150000  TIP3      19              0.0000000000
        58        20  TIP3      OH2            18.5368239276       -0.6693896337       20.5276150000  TIP3      20              0.0000000000
        59        20  TIP3      H1             19.1399727324       -1.3293713115       20.1857650000  TIP3      20              0.0000000000
        60        20  TIP3      H2             18.9227077959        0.1666957887       20.2663050000  TIP3      20              0.0000000000
        61        21  TIP3      OH2            20.2083423811       -4.8650410854       20.4850850000  TIP3      21              0.0000000000
        62        21  TIP3      H1             20.3962094334       -5.7951413922       20.6109150000  TIP3      21              0.0000000000
        63        21  TIP3      H2             20.5331223313       -4.6714242523       19.6057250000  TIP3      21              0.0000000000
        64        22  TIP3      OH2            14.3237252909       18.1535838913       19.7647650000  TIP3      22              0.0000000000
        65        22  TIP3      H1             14.1347822987       17.3223283552       20.2001250000  TIP3      22              0.0000000000
        66        22  TIP3      H2             15.2706142255       18.2615149896       19.8541450000  TIP3      22              0.0000000000
        67        23  TIP3      OH2            10.7340383561       16.7366710754       21.1423850000  TIP3      23              0.0000000000
        68        23  TIP3      H1             11.4388708753       16.7645084424       21.7894250000  TIP3      23              0.0000000000
        69        23  TIP3      H2             11.1599734857       16.9567832000       20.3139150000  TIP3      23              0.0000000000
        70        24  TIP3      OH2            14.5172619445      -20.0683823094       19.4604900000  TIP3      24              0.0000000000
        71        24  TIP3      H1             14.8364744435      -20.0508313280       20.3627200000  TIP3      24              0.0000000000
        72        24  TIP3      H2             13.6561399995      -20.4822824899       19.5186000000  TIP3      24              0.0000000000
        73        25  TIP3      OH2            15.7897925330      -16.1353565001       21.2214200000  TIP3      25              0.0000000000
        74        25  TIP3      H1             16.6455607264      -15.7202038245       21.1140200000  TIP3      25              0.0000000000
        75        25  TIP3      H2             15.4856840809      -16.2930429426       20.3276200000  TIP3      25              0.0000000000
        76        26  TIP3      OH2            -7.7080740169       20.0834237179       19.0560000000  TIP3      26              0.0000000000
        77        26  TIP3      H1             -8.3282297615       20.8108602068       19.1058800000  TIP3      26              0.0000000000
        78        26  TIP3      H2             -7.2970737293       20.0587806744       19.9201300000  TIP3      26              0.0000000000
        79        27  TIP3      OH2           -24.0693778478       -6.8963999837       18.1383050000  TIP3      27            -26.4800000000
        80        27  TIP3      H1            -23.1187974297       -6.9791691670       18.2142250000  TIP3      27            -25.7500000000
        81        27  TIP3      H2            -24.2173699761       -5.9636351509       17.9824850000  TIP3      27            -27.1600000000
        82        28  TIP3      OH2           -21.6764940133       -3.4989724216       18.8676450000  TIP3      28              0.0000000000
        83        28  TIP3      H1            -20.9291637365       -3.9160486232       19.2963350000  TIP3      28              0.0000000000
        84        28  TIP3      H2            -21.3219122975       -2.6884156999       18.5022650000  TIP3      28              0.0000000000
        85        29  TIP3      OH2           -26.3299408303       -4.2011285704       20.6106650000  TIP3      29              0.0000000000
        86        29  TIP3      H1            -27.2685525785       -4.0441554908       20.5077250000  TIP3      29              0.0000000000
        87        29  TIP3      H2            -25.9583294717       -4.0067720982       19.7502250000  TIP3      29              0.0000000000
        88        30  TIP3      OH2           -25.0069691504       -6.6733267899       20.7102650000  TIP3      30              0.0000000000
        89        30  TIP3      H1            -25.2712525930       -5.7544897399       20.6642350000  TIP3      30              0.0000000000
        90        30  TIP3      H2            -24.6108524599       -6.8521329192       19.8574150000  TIP3      30              0.0000000000
        91        31  TIP3      OH2           -16.9696818836       17.6744354172       20.0987900000  TIP3      31              0.0000000000
        92        31  TIP3      H1            -17.1203713005       18.5531659198       19.7504300000  TIP3      31              0.0000000000
        93        31  TIP3      H2            -17.2653803193       17.7227031666       21.0078900000  TIP3      31              0.0000000000
        94        32  TIP3      OH2           -18.1164502153       23.4664919023       19.4725500000  TIP3      32              0.0000000000
        95        32  TIP3      H1            -18.8904640694       23.8444945851       19.8899700000  TIP3      32              0.0000000000
        96        32  TIP3      H2            -17.3906684139       24.0138278855       19.7724000000  TIP3      32              0.0000000000
        97        33  TIP3      OH2            12.4658689494      -21.6221046137       19.5442200000  TIP3      33              0.0000000000
        98        33  TIP3      H1             13.2545087097      -21.0994469107       19.6895000000  TIP3      33              0.0000000000
        99        33  TIP3      H2             11.9808545541      -21.1430201535       18.8723100000  TIP3      33              0.0000000000
       100        34  TIP3      OH2            24.2797787076      -16.3611513200       21.1401500000  TIP3      34              0.0000000000
       101        34  TIP3      H1             24.2794096422      -16.0506422015       20.2347100000  TIP3      34              0.0000000000
       102        34  TIP3      H2             23.9129017182      -17.2439020800       21.0912700000  TIP3      34              0.0000000000
       103        35  TIP3      OH2            22.2616324447      -13.1272045843       19.3434700000  TIP3      35              0.0000000000
       104        35  TIP3      H1             21.6133776417      -13.1385501123       20.0476400000  TIP3      35              0.0000000000
       105        35  TIP3      H2             22.3021736598      -12.2109905417       19.0693300000  TIP3      35              0.0000000000
       106        36  TIP3      OH2            28.7919411607       -1.3597022324       21.5545000000  TIP3      36              0.0000000000
       107        36  TIP3      H1             28.9627702872       -0.6379077585       22.1595300000  TIP3      36              0.0000000000
       108        36  TIP3      H2             29.4320078237       -2.0300073949       21.7937600000  TIP3      36              0.0000000000
       109        37  TIP3      OH2            27.4001074249       -3.1385520055       19.9054500000  TIP3      37              0.0000000000
       110        37  TIP3      H1             27.8687228754       -2.3221164346       19.7320300000  TIP3      37              0.0000000000
       111        37  TIP3      H2             27.0058693981       -3.3721358562       19.0650700000  TIP3      37              0.0000000000
       112        38  TIP3      OH2            14.7941591836       21.3963931937       19.5916450000  TIP3      38              0.0000000000
       113        38  TIP3      H1             15.4558098665       21.9569105308       19.1863350000  TIP3      38              0.0000000000
       114        38  TIP3      H2             14.5416742496       21.8613925933       20.3893050000  TIP3      38              0.0000000000
       115        39  TIP3      OH2            24.4541978242       14.1406235222       20.5115750000  TIP3      39              0.0000000000
       116        39  TIP3      H1             24.8769415554       14.0052788227       21.3596350000  TIP3      39              0.0000000000
       117        39  TIP3      H2             23.7486956497       14.7619922247       20.6915450000  TIP3      39              0.0000000000
       118        40  TIP3      OH2           -24.5137546714       12.2890151294       19.2210400000  TIP3      40              0.0000000000
       119        40  TIP3      H1            -24.0343464458       13.1140202363       19.1450500000  TIP3      40              0.0000000000
       120        40  TIP3      H2            -24.6566820308       12.1802292079       20.1612300000  TIP3      40              0.0000000000
       121        41  TIP3      OH2             1.0719934313       32.5160314553       20.0185650000  TIP3      41              0.0000000000
       122        41  TIP3      H1              1.0105348411       33.4618160711       19.8846050000  TIP3      41              0.0000000000
       123        41  TIP3      H2              2.0103868747       32.3456434810       20.0998950000  TIP3      41              0.0000000000
       124        42  TIP3      OH2             3.7351274282       31.7226122745       20.0954250000  TIP3      42              0.0000000000
       125        42  TIP3      H1              4.1218303282       30.8577525962       20.2322150000  TIP3      42              0.0000000000
       126        42  TIP3      H2              4.4543412449       32.2563692296       19.7576750000  TIP3      42              0.0000000000
       127        43  TIP3      OH2             2.1969052566       27.8241769901       18.5846250000  TIP3      43              0.0000000000
       128        43  TIP3      H1              1.5640613922       27.3648704201       19.1366850000  TIP3      43              0.0000000000
       129        43  TIP3      H2              1.8385355832       28.7069329018       18.4921350000  TIP3      43              0.0000000000
       130        44  TIP3      OH2           -27.3306812699       18.0994849642       19.5696150000  TIP3      44              0.0000000000
       131        44  TIP3      H1            -27.5928643532       17.1943625676       19.4015750000  TIP3      44              0.0000000000
       132        44  TIP3      H2            -26.5129377723       18.2066148735       19.0837750000  TIP3      44              0.0000000000
       133        45  TIP3      OH2            18.5085766241       32.2757453744       21.3301900000  TIP3      45            -32.2000000000
       134        45  TIP3      H1             18.2286821873       31.7296660795       22.0648200000  TIP3      45            -32.7200000000
       135        45  TIP3      H2             19.4528544719       32.1311277770       21.2697700000  TIP3      45            -32.7400000000
       136        46  TIP3      OH2            19.6094116117       28.0745529254       20.0744500000  TIP3      46              0.0000000000
       137        46  TIP3      H1             19.0125807766       28.7708714191       19.8002600000  TIP3      46              0.0000000000
       138        46  TIP3      H2             20.4639159414       28.5014333487       20.1363200000  TIP3      46              0.0000000000
       139        47  TIP3      OH2            16.8464016125       33.3578618048       19.5931500000  TIP3      47              0.0000000000
       140        47  TIP3      H1             16.0972135304       33.5165830553       20.1674000000  TIP3      47              0.0000000000
       141        47  TIP3      H2             17.5139824644       32.9830416172       20.1676800000  TIP3      47              0.0000000000
       142        48  TIP3      OH2            16.3362164817       29.2995274688       19.7101900000  TIP3      48              0.0000000000
       143        48  TIP3      H1             16.3897781699       28.5032867778       19.1816400000  TIP3      48              0.0000000000
       144        48  TIP3      H2             16.9663182185       29.8973857317       19.3080000000  TIP3      48              0.0000000000
       145        49  TIP3      OH2            21.1670611910       31.6105928063       20.3798400000  TIP3      49              0.0000000000
       146        49  TIP3      H1             21.9051560718       32.1637973790       20.6355900000  TIP3      49              0.0000000000
       147        49  TIP3      H2             21.5489858249       30.7410761485       20.2602400000  TIP3      49              0.0000000000
       148        50  TIP3      OH2            24.5297311788      -30.7911019762       20.4179850000  TIP3      50              0.0000000000
       149        50  TIP3      H1             24.6570787128      -30.9610613386       21.3513250000  TIP3      50              0.0000000000
       150        50  TIP3      H2             23.8728123703      -31.4314980974       20.1448850000  TIP3      50              0.0000000000
       151        51  TIP3      OH2           -25.3131560403      -33.7240916017       21.8879600000  TIP3      51              0.0000000000
       152        51  TIP3      H1            -24.8738120695      -33.1691198248       22.5323300000  TIP3      51              0.0000000000
       153        51  TIP3      H2            -25.5053715903      -33.1369391306       21.1568400000  TIP3      51              0.0000000000
       154        52  TIP3      OH2           -24.4636041799      -31.3420032003       20.0642100000  TIP3      52              0.0000000000
       155        52  TIP3      H1            -23.5488784035      -31.3508860551       20.3460600000  TIP3      52              0.0000000000
       156        52  TIP3      H2            -24.5574045073      -32.1298857059       19.5287900000  TIP3      52              0.0000000000
       157        53  TIP3      OH2            -0.6631634825        6.3770610925      -19.9775000000  TIP3      53              0.0000000000
       158        53  TIP3      H1             -1.2440427585        6.4172940639      -20.7372300000  TIP3      53              0.0000000000
       159        53  TIP3      H2              0.2160193206        6.3137810768      -20.3507000000  TIP3      53              0.0000000000
       160        54  TIP3      OH2             0.8163384079        2.0473208036      -20.3870000000  TIP3      54              0.0000000000
       161        54  TIP3      H1             -0.0452359362        1.6521310648      -20.5202000000  TIP3      54              0.0000000000
       162        54  TIP3      H2              0.6557050051        2.7771922575      -19.7889000000  TIP3      54              0.0000000000
       163        55  TIP3      OH2             6.5602322186       -2.2255631503      -18.9974950000  TIP3      55              0.0000000000
       164        55  TIP3      H1              6.5285551031       -1.2689791310      -19.0106150000  TIP3      55              0.0000000000
       165        55  TIP3      H2              5.6961657567       -2.4899848823      -18.6817350000  TIP3      55              0.0000000000
       166        56  TIP3      OH2             3.0090697983       -3.2577870721      -21.8658350000  TIP3      56              0.0000000000
       167        56  TIP3      H1              3.6361274361       -3.9799223648      -21.9053350000  TIP3      56              0.0000000000
       168        56  TIP3      H2              3.5006532036       -2.4960410621      -22.1729550000  TIP3      56              0.0000000000
       169        57  TIP3      OH2             5.7625718278       -1.4476421608      -21.3807750000  TIP3      57              0.0000000000
       170        57  TIP3      H1              6.6323243462       -1.2095347816      -21.7018150000  TIP3      57              0.0000000000
       171        57  TIP3      H2              5.9313700965       -1.9955673496      -20.6142850000  TIP3      57              0.0000000000
       172        58  TIP3      OH2            -4.9538315031        8.3668749716      -18.8300650000  TIP3      58              0.0000000000
       173        58  TIP3      H1             -4.1627307010        7.9614793356      -18.4750350000  TIP3      58              0.0000000000
       174        58  TIP3      H2             -4.7774545353        9.3070900073      -18.7964850000  TIP3      58              0.0000000000
       175        59  TIP3      OH2            -2.0267803991      -16.6750787189      -19.8738450000  TIP3      59              0.0000000000
       176        59  TIP3      H1             -1.1598826696      -16.3037283659      -19.7100550000  TIP3      59              0.0000000000
       177        59  TIP3      H2             -1.8512637651      -17.5412381967      -20.2415150000  TIP3      59              0.0000000000
       178        60  TIP3      OH2            -3.7406488098      -20.1506018117      -18.8800750000  TIP3      60              0.0000000000
       179        60  TIP3      H1             -3.6699218111      -19.2811712720      -18.4859750000  TIP3      60              0.0000000000
       180        60  TIP3      H2             -3.0971880516      -20.1459530163      -19.5887150000  TIP3      60              0.0000000000
       181        61  TIP3      OH2            20.2131029489      -10.2790056439      -18.8350450000  TIP3      61              0.0000000000
       182        61  TIP3      H1             19.7686377745      -11.0129449411      -19.2593150000  TIP3      61              0.0000000000
       183        61  TIP3      H2             19.5612940428       -9.5781235462      -18.8232150000  TIP3      61              0.0000000000
       184        62  TIP3      OH2            15.9267001397       -6.8169248763      -20.5620050000  TIP3      62              0.0000000000
       185        62  TIP3      H1             16.0972218658       -6.9377209836      -21.4961150000  TIP3      62              0.0000000000
       186        62  TIP3      H2             16.6602652249       -6.2866297898      -20.2507550000  TIP3      62              0.0000000000
       187        63  TIP3      OH2             5.7700289946       19.5568730824      -20.2791550000  TIP3      63              0.0000000000
       188        63  TIP3      H1              5.4360658575       20.4301471700      -20.0739750000  TIP3      63              0.0000000000
       189        63  TIP3      H2              5.7917785987       19.5268750871      -21.2356450000  TIP3      63              0.0000000000
       190        64  TIP3      OH2            10.0157066634       19.0036661893      -19.2781550000  TIP3      64              0.0000000000
       191        64  TIP3      H1              9.9405027083       19.3232563703      -20.1772850000  TIP3      64              0.0000000000
       192        64  TIP3      H2              9.1408267711       18.6791209442      -19.0648550000  TIP3      64              0.0000000000
       193        65  TIP3      OH2           -22.2801264742       -2.6535246628      -20.0773550000  TIP3      65              0.0000000000
       194        65  TIP3      H1            -22.3959241685       -3.1404811303      -19.2614450000  TIP3      65              0.0000000000
       195        65  TIP3      H2            -21.4850044264       -2.1388935767      -19.9389050000  TIP3      65              0.0000000000
       196        66  TIP3      OH2           -18.5983382733       -4.1113669541      -19.0375550000  TIP3      66              0.0000000000
       197        66  TIP3      H1            -18.3028439138       -3.7229137317      -19.8609650000  TIP3      66              0.0000000000
       198        66  TIP3      H2            -19.3433902584       -4.6592592988      -19.2844250000  TIP3      66              0.0000000000
       199        67  TIP3      OH2           -20.8374991586        0.6658244699      -19.5944650000  TIP3      67              0.0000000000
       200        67  TIP3      H1            -20.2155992955        1.3088603680      -19.2538950000  TIP3      67              0.0000000000
       201        67  TIP3      H2            -20.5394615006       -0.1698816168      -19.2353050000  TIP3      67              0.0000000000
       202        68  TIP3      OH2           -12.2025002758      -20.3639743535      -20.6032300000  TIP3      68              0.0000000000
       203        68  TIP3      H1            -11.4049454680      -20.1205837821      -20.1332300000  TIP3      68              0.0000000000
       204        68  TIP3      H2            -12.8768722501      -19.7854236478      -20.2472300000  TIP3      68              0.0000000000
       205        69  TIP3      OH2            14.2974210020       16.6932089080      -21.4090700000  TIP3      69              0.0000000000
       206        69  TIP3      H1             13.6013848422       16.1902282783      -20.9862400000  TIP3      69              0.0000000000
       207        69  TIP3      H2             13.8362269875       17.3560594113      -21.9230300000  TIP3      69              0.0000000000
       208        70  TIP3      OH2            17.6913584993       15.9918720936      -19.0786900000  TIP3      70              0.0000000000
       209        70  TIP3      H1             16.9445494826       16.5829311241      -18.9829900000  TIP3      70              0.0000000000
       210        70  TIP3      H2             17.3529879573       15.1340935865      -18.8218800000  TIP3      70              0.0000000000
       211        71  TIP3      OH2           -21.7227152093       13.2604491520      -20.8559550000  TIP3      71              0.0000000000
       212        71  TIP3      H1            -21.9977990551       12.8023778227      -20.0617650000  TIP3      71              0.0000000000
       213        71  TIP3      H2            -22.0907799803       14.1394426549      -20.7656950000  TIP3      71              0.0000000000
       214        72  TIP3      OH2           -21.1859712610        9.5578316724      -19.1586250000  TIP3      72              0.0000000000
       215        72  TIP3      H1            -21.6615808078        8.7271758924      -19.1656350000  TIP3      72              0.0000000000
       216        72  TIP3      H2            -21.8686503566       10.2246176076      -19.0838850000  TIP3      72              0.0000000000
       217        73  TIP3      OH2             7.1108767449      -22.1037518362      -19.8563450000  TIP3      73              0.0000000000
       218        73  TIP3      H1              7.0646491306      -22.9979453726      -20.1947450000  TIP3      73              0.0000000000
       219        73  TIP3      H2              7.8514474539      -22.1146203909      -19.2499950000  TIP3      73              0.0000000000
       220        74  TIP3      OH2            11.9812509775      -23.3907642034      -19.7459650000  TIP3      74              0.0000000000
       221        74  TIP3      H1             11.6831936027      -24.0966506145      -20.3196650000  TIP3      74              0.0000000000
       222        74  TIP3      H2             12.9306982980      -23.3690509769      -19.8655450000  TIP3      74              0.0000000000
       223        75  TIP3      OH2           -24.9306955071      -11.0111553556      -20.0264800000  TIP3      75              0.0000000000
       224        75  TIP3      H1            -24.0529542231      -10.9520502386      -19.6492500000  TIP3      75              0.0000000000
       225        75  TIP3      H2            -25.3778768357      -10.2228880442      -19.7184200000  TIP3      75              0.0000000000
       226        76  TIP3      OH2           -27.0198690657       -8.7568989172      -19.2978500000  TIP3      76              0.0000000000
       227        76  TIP3      H1            -27.6074753608       -8.3689152005      -18.6494500000  TIP3      76              0.0000000000
       228        76  TIP3      H2            -26.1499322075       -8.6890607230      -18.9043400000  TIP3      76              0.0000000000
       229        77  TIP3      OH2            -6.3363835288      -26.7641437752      -19.7575900000  TIP3      77              0.0000000000
       230        77  TIP3      H1             -6.4643085022      -26.3077123529      -20.5891800000  TIP3      77              0.0000000000
       231        77  TIP3      H2             -6.5553783340      -27.6762332922      -19.9482800000  TIP3      77              0.0000000000
       232        78  TIP3      OH2           -10.7946841709      -24.9138979776      -19.8466900000  TIP3      78              0.0000000000
       233        78  TIP3      H1             -9.9654021632      -24.6450414140      -19.4514200000  TIP3      78              0.0000000000
       234        78  TIP3      H2            -10.6945393117      -24.7101146130      -20.7765700000  TIP3      78              0.0000000000
       235        79  TIP3      OH2            -7.8916761866      -24.9429531891      -21.8835900000  TIP3      79              0.0000000000
       236        79  TIP3      H1             -7.3458012652      -25.6489900186      -22.2296500000  TIP3      79              0.0000000000
       237        79  TIP3      H2             -8.7431627471      -25.0709777208      -22.3017100000  TIP3      79              0.0000000000
       238        80  TIP3      OH2            -8.7303651851      -22.5801167838      -20.6126700000  TIP3      80              0.0000000000
       239        80  TIP3      H1             -8.5473141847      -23.1028210063      -19.8319600000  TIP3      80              0.0000000000
       240        80  TIP3      H2             -8.3684777101      -23.0931081162      -21.3352300000  TIP3      80              0.0000000000
       241        81  TIP3      OH2            18.1144252169      -13.7819690221      -19.8064500000  TIP3      81              0.0000000000
       242        81  TIP3      H1             18.4773204195      -14.6595039011      -19.6860800000  TIP3      81              0.0000000000
       243        81  TIP3      H2             17.3852293147      -13.9051172024      -20.4141800000  TIP3      81              0.0000000000
       244        82  TIP3      OH2            19.7128593478      -16.6620349456      -19.5824900000  TIP3      82              0.0000000000
       245        82  TIP3      H1             19.5037197839      -17.1646246848      -18.7951600000  TIP3      82              0.0000000000
       246        82  TIP3      H2             20.2120362793      -17.2689333773      -20.1290600000  TIP3      82              0.0000000000
       247        83  TIP3      OH2            23.5092050088      -14.7101036351      -20.1291200000  TIP3      83              0.0000000000
       248        83  TIP3      H1             23.6955495836      -15.6440306393      -20.2255200000  TIP3      83              0.0000000000
       249        83  TIP3      H2             22.7198947488      -14.6774191382      -19.5886100000  TIP3      83              0.0000000000
       250        84  TIP3      OH2           -16.5361862016      -23.5343137913      -21.0971450000  TIP3      84              0.0000000000
       251        84  TIP3      H1            -16.3674734394      -24.0638492068      -20.3178150000  TIP3      84              0.0000000000
       252        84  TIP3      H2            -16.9552266223      -22.7414572921      -20.7624550000  TIP3      84              0.0000000000
       253        85  TIP3      OH2           -19.5274641952      -24.0335973149      -18.4345950000  TIP3      85              0.0000000000
       254        85  TIP3      H1            -18.6285169896      -23.7275200777      -18.5547750000  TIP3      85              0.0000000000
       255        85  TIP3      H2            -20.0682142184      -23.2617986776      -18.6023950000  TIP3      85              0.0000000000
       256        86  TIP3      OH2           -15.6630555204      -27.4167593963      -19.6616850000  TIP3      86              0.0000000000
       257        86  TIP3      H1            -15.1732131276      -28.1566486751      -20.0206250000  TIP3      86              0.0000000000
       258        86  TIP3      H2            -16.5551001172      -27.5393248200      -19.9864350000  TIP3      86              0.0000000000
       259        87  TIP3      OH2            27.1926868780       12.1428904113      -21.4915200000  TIP3      87              0.0000000000
       260        87  TIP3      H1             27.7967218676       11.7860272165      -20.8403500000  TIP3      87              0.0000000000
       261        87  TIP3      H2             26.6378403049       12.7472239821      -20.9984100000  TIP3      87              0.0000000000
       262        88  TIP3      OH2            26.5183905019       14.0033242758      -19.4284300000  TIP3      88              0.0000000000
       263        88  TIP3      H1             27.1183229481       13.3969013652      -18.9942000000  TIP3      88              0.0000000000
       264        88  TIP3      H2             26.5165251625       14.7804521269      -18.8695900000  TIP3      88              0.0000000000
       265        89  TIP3      OH2            35.8255514873        5.1670354224      -18.9776750000  TIP3      89              0.0000000000
       266        89  TIP3      H1             35.9625035366        5.0819901815      -19.9211950000  TIP3      89              0.0000000000
       267        89  TIP3      H2             36.5887242723        4.7430217614      -18.5852250000  TIP3      89              0.0000000000
       268        90  TIP3      OH2            32.4703526134        6.0140867965      -21.4205450000  TIP3      90              0.0000000000
       269        90  TIP3      H1             33.0512170170        5.3581853473      -21.8060650000  TIP3      90              0.0000000000
       270        90  TIP3      H2             32.7200974938        6.0426111106      -20.4969450000  TIP3      90              0.0000000000
       271        91  TIP3      OH2           -10.3633721371      -30.4968365064      -20.2663050000  TIP3      91              0.0000000000
       272        91  TIP3      H1            -10.1287719060      -29.8390019914      -20.9208650000  TIP3      91              0.0000000000
       273        91  TIP3      H2            -10.7716162387      -29.9970403414      -19.5593750000  TIP3      91              0.0000000000
       274        92  TIP3      OH2           -15.1776017381      -33.7890562154      -20.1102050000  TIP3      92              0.0000000000
       275        92  TIP3      H1            -14.2505367190      -33.9711426037      -20.2639350000  TIP3      92              0.0000000000
       276        92  TIP3      H2            -15.6406977587      -34.4214305068      -20.6596550000  TIP3      92              0.0000000000
       277        93  TIP3      OH2           -12.5331045731      -31.9625070740      -21.7091050000  TIP3      93              0.0000000000
       278        93  TIP3      H1            -11.9933201332      -31.9674677628      -20.9186350000  TIP3      93              0.0000000000
       279        93  TIP3      H2            -12.9423230835      -31.0972071872      -21.7148350000  TIP3      93              0.0000000000
       280        94  TIP3      OH2            25.4070100454       26.1647230734      -20.1865500000  TIP3      94              0.0000000000
       281        94  TIP3      H1             25.3490416277       26.5668448344      -21.0532500000  TIP3      94              0.0000000000
       282        94  TIP3      H2             25.0964839747       25.2686600265      -20.3164900000  TIP3      94              0.0000000000
       283        95  TIP3      OH2            24.4554213804       23.7809297703      -20.5282500000  TIP3      95              0.0000000000
       284        95  TIP3      H1             23.5006520539       23.7953991280      -20.5948300000  TIP3      95              0.0000000000
       285        95  TIP3      H2             24.6971322455       22.8792827847      -20.7400200000  TIP3      95              0.0000000000
       286        96  TIP3      OH2            27.7250767590       25.5124366549      -21.7396700000  TIP3      96              0.0000000000
       287        96  TIP3      H1             27.4133674387       25.5888458941      -20.8378800000  TIP3      96              0.0000000000
       288        96  TIP3      H2             28.4872643927       26.0900880083      -21.7799000000  TIP3      96              0.0000000000
       289        97  TIP3      OH2           -30.5009726612       17.8574258731      -21.6484500000  TIP3      97              0.0000000000
       290        97  TIP3      H1            -30.8757584619       16.9821959871      -21.5497900000  TIP3      97              0.0000000000
       291        97  TIP3      H2            -29.5546457962       17.7137730137      -21.6563500000  TIP3      97              0.0000000000
       292        98  TIP3      OH2           -30.3100729841       20.1551140086      -20.2225300000  TIP3      98              0.0000000000
       293        98  TIP3      H1            -30.2901983290       19.3039864883      -20.6600400000  TIP3      98              0.0000000000
       294        98  TIP3      H2            -31.0902012031       20.1221742503      -19.6688500000  TIP3      98              0.0000000000
       295        99  TIP3      OH2           -29.0604196640       17.0857460835      -18.9807500000  TIP3      99              0.0000000000
       296        99  TIP3      H1            -28.1456612333       17.3658375486      -19.0126100000  TIP3      99              0.0000000000
       297        99  TIP3      H2            -29.0346926457       16.1559051473      -19.2065200000  TIP3      99              0.0000000000
       298       100  TIP3      OH2           -28.6418169241       24.2906392833      -20.6501100000  TIP3      100             0.0000000000
       299       100  TIP3      H1            -28.7962662036       24.9085655308      -19.9355900000  TIP3      100             0.0000000000
       300       100  TIP3      H2            -28.3901564497       24.8401114096      -21.3923900000  TIP3      100             0.0000000000
       301       101  TIP3      OH2            32.0779118136      -23.3878263062      -19.8421500000  TIP3      101             0.0000000000
       302       101  TIP3      H1             31.4832215688      -22.8985674766      -20.4106600000  TIP3      101             0.0000000000
       303       101  TIP3      H2             31.5253912529      -24.0541902162      -19.4336000000  TIP3      101             0.0000000000
       304       102  TIP3      OH2           -35.9232765992       32.3629277960      -20.5067500000  TIP3      102             0.0000000000
       305       102  TIP3      H1            -35.2485167182       32.1708405517      -21.1579300000  TIP3      102             0.0000000000
       306       102  TIP3      H2            -36.4825401963       31.5861108471      -20.5043500000  TIP3      102             0.0000000000
