;;
;; Generated by CHARMM-GUI (http://www.charmm-gui.org) v1.7
;;
;; psf2itp_mol.py
;;
;; Correspondance:
;; jul316@lehigh.edu or wonpil@lehigh.edu
;;
;; GROMACS topology file for LIG
;;


[ moleculetype ]
; name	nrexcl
LIG	     3

[ atoms ]
; nr	type	resnr	residu	atom	cgnr	charge	mass
     1      SG311      1      LIG      S      1     -0.246    32.0600   ; qtot -0.246
     2      NG301      1      LIG     N1      2     -0.592    14.0070   ; qtot -0.838
     3      NG301      1      LIG     N2      3     -0.394    14.0070   ; qtot -1.232
     4      NG301      1      LIG     N3      4     -0.586    14.0070   ; qtot -1.818
     5      CG321      1      LIG     C1      5      0.055    12.0110   ; qtot -1.763
     6      CG321      1      LIG     C2      6     -0.177    12.0110   ; qtot -1.940
     7      CG321      1      LIG     C3      7      0.042    12.0110   ; qtot -1.898
     8     CG2R61      1      LIG     C4      8      0.212    12.0110   ; qtot -1.686
     9     CG2R61      1      LIG     C5      9      0.024    12.0110   ; qtot -1.662
    10      CG321      1      LIG     C6     10      0.055    12.0110   ; qtot -1.607
    11      CG321      1      LIG     C7     11     -0.179    12.0110   ; qtot -1.786
    12     CG2R61      1      LIG     C8     12      0.229    12.0110   ; qtot -1.557
    13     CG2R61      1      LIG     C9     13      0.062    12.0110   ; qtot -1.495
    14     CG2R61      1      LIG    C10     14     -0.110    12.0110   ; qtot -1.605
    15      CG321      1      LIG    C11     15      0.064    12.0110   ; qtot -1.541
    16     CG2R61      1      LIG    C12     16      0.046    12.0110   ; qtot -1.495
    17     CG2R61      1      LIG    C13     17     -0.108    12.0110   ; qtot -1.603
    18     CG2R61      1      LIG    C14     18     -0.100    12.0110   ; qtot -1.703
    19     CG2R61      1      LIG    C15     19     -0.201    12.0110   ; qtot -1.904
    20     CG2R61      1      LIG    C16     20     -0.108    12.0110   ; qtot -2.012
    21     CG2R61      1      LIG    C17     21     -0.099    12.0110   ; qtot -2.111
    22     CG2R61      1      LIG    C18     22     -0.116    12.0110   ; qtot -2.227
    23      CG331      1      LIG    C19     23     -0.099    12.0110   ; qtot -2.326
    24      CG331      1      LIG    C20     24     -0.099    12.0110   ; qtot -2.425
    25       HGA2      1      LIG     H1     25      0.090     1.0080   ; qtot -2.335
    26       HGA2      1      LIG     H2     26      0.090     1.0080   ; qtot -2.245
    27       HGA2      1      LIG     H3     27      0.090     1.0080   ; qtot -2.155
    28       HGA2      1      LIG     H4     28      0.090     1.0080   ; qtot -2.065
    29       HGA2      1      LIG     H5     29      0.090     1.0080   ; qtot -1.975
    30       HGA2      1      LIG     H6     30      0.090     1.0080   ; qtot -1.885
    31       HGA2      1      LIG     H7     31      0.090     1.0080   ; qtot -1.795
    32       HGA2      1      LIG     H8     32      0.090     1.0080   ; qtot -1.705
    33       HGA2      1      LIG     H9     33      0.090     1.0080   ; qtot -1.615
    34       HGA2      1      LIG    H10     34      0.090     1.0080   ; qtot -1.525
    35      HGR61      1      LIG    H11     35      0.115     1.0080   ; qtot -1.410
    36       HGA2      1      LIG    H12     36      0.090     1.0080   ; qtot -1.320
    37       HGA2      1      LIG    H13     37      0.090     1.0080   ; qtot -1.230
    38      HGR61      1      LIG    H14     38      0.115     1.0080   ; qtot -1.115
    39      HGR61      1      LIG    H15     39      0.115     1.0080   ; qtot -1.000
    40      HGR61      1      LIG    H16     40      0.115     1.0080   ; qtot -0.885
    41      HGR61      1      LIG    H17     41      0.115     1.0080   ; qtot -0.770
    42      HGR61      1      LIG    H18     42      0.115     1.0080   ; qtot -0.655
    43      HGR61      1      LIG    H19     43      0.115     1.0080   ; qtot -0.540
    44       HGA3      1      LIG    H20     44      0.090     1.0080   ; qtot -0.450
    45       HGA3      1      LIG    H21     45      0.090     1.0080   ; qtot -0.360
    46       HGA3      1      LIG    H22     46      0.090     1.0080   ; qtot -0.270
    47       HGA3      1      LIG    H23     47      0.090     1.0080   ; qtot -0.180
    48       HGA3      1      LIG    H24     48      0.090     1.0080   ; qtot -0.090
    49       HGA3      1      LIG    H25     49      0.090     1.0080   ; qtot -0.000

[ bonds ]
; ai	aj	funct	b0	Kb
    1    13     1
    1    16     1
    2     5     1
    2     9     1
    2    10     1
    3     7     1
    3     8     1
    3    12     1
    4    15     1
    4    23     1
    4    24     1
    5     6     1
    5    25     1
    5    26     1
    6     7     1
    6    27     1
    6    28     1
    7    29     1
    7    30     1
    8     9     1
    8    13     1
    9    14     1
   10    11     1
   10    31     1
   10    32     1
   11    15     1
   11    33     1
   11    34     1
   12    16     1
   12    19     1
   13    17     1
   14    18     1
   14    35     1
   15    36     1
   15    37     1
   16    20     1
   17    18     1
   17    38     1
   18    39     1
   19    21     1
   19    40     1
   20    22     1
   20    41     1
   21    22     1
   21    42     1
   22    43     1
   23    44     1
   23    45     1
   23    46     1
   24    47     1
   24    48     1
   24    49     1

[ pairs ]
; ai	aj	funct	c6	c12
    1     3     1 
    1     9     1 
    1    18     1 
    1    19     1 
    1    22     1 
    1    38     1 
    1    41     1 
    2     3     1 
    2     7     1 
    2    13     1 
    2    15     1 
    2    18     1 
    2    27     1 
    2    28     1 
    2    33     1 
    2    34     1 
    2    35     1 
    3     5     1 
    3    14     1 
    3    17     1 
    3    20     1 
    3    21     1 
    3    27     1 
    3    28     1 
    3    40     1 
    4    10     1 
    4    33     1 
    4    34     1 
    5     8     1 
    5    11     1 
    5    14     1 
    5    29     1 
    5    30     1 
    5    31     1 
    5    32     1 
    6     8     1 
    6     9     1 
    6    10     1 
    6    12     1 
    7     9     1 
    7    13     1 
    7    16     1 
    7    19     1 
    7    25     1 
    7    26     1 
    8    10     1 
    8    16     1 
    8    18     1 
    8    19     1 
    8    29     1 
    8    30     1 
    8    35     1 
    8    38     1 
    9    11     1 
    9    12     1 
    9    17     1 
    9    25     1 
    9    26     1 
    9    31     1 
    9    32     1 
    9    39     1 
   10    14     1 
   10    25     1 
   10    26     1 
   10    36     1 
   10    37     1 
   11    23     1 
   11    24     1 
   12    13     1 
   12    22     1 
   12    29     1 
   12    30     1 
   12    41     1 
   12    42     1 
   13    14     1 
   13    20     1 
   13    39     1 
   14    38     1 
   15    31     1 
   15    32     1 
   15    44     1 
   15    45     1 
   15    46     1 
   15    47     1 
   15    48     1 
   15    49     1 
   16    17     1 
   16    21     1 
   16    40     1 
   16    43     1 
   17    35     1 
   19    20     1 
   19    43     1 
   20    42     1 
   21    41     1 
   22    40     1 
   23    36     1 
   23    37     1 
   23    47     1 
   23    48     1 
   23    49     1 
   24    36     1 
   24    37     1 
   24    44     1 
   24    45     1 
   24    46     1 
   25    27     1 
   25    28     1 
   26    27     1 
   26    28     1 
   27    29     1 
   27    30     1 
   28    29     1 
   28    30     1 
   31    33     1 
   31    34     1 
   32    33     1 
   32    34     1 
   33    36     1 
   33    37     1 
   34    36     1 
   34    37     1 
   35    39     1 
   38    39     1 
   40    42     1 
   41    43     1 
   42    43     1 

[ angles ] 
; ai	aj	ak	funct	th0	cth	S0	Kub
   13     1    16     5
    5     2     9     5
    5     2    10     5
    9     2    10     5
    7     3     8     5
    7     3    12     5
    8     3    12     5
   15     4    23     5
   15     4    24     5
   23     4    24     5
    2     5     6     5
    2     5    25     5
    2     5    26     5
    6     5    25     5
    6     5    26     5
   25     5    26     5
    5     6     7     5
    5     6    27     5
    5     6    28     5
    7     6    27     5
    7     6    28     5
   27     6    28     5
    3     7     6     5
    3     7    29     5
    3     7    30     5
    6     7    29     5
    6     7    30     5
   29     7    30     5
    3     8     9     5
    3     8    13     5
    9     8    13     5
    2     9     8     5
    2     9    14     5
    8     9    14     5
    2    10    11     5
    2    10    31     5
    2    10    32     5
   11    10    31     5
   11    10    32     5
   31    10    32     5
   10    11    15     5
   10    11    33     5
   10    11    34     5
   15    11    33     5
   15    11    34     5
   33    11    34     5
    3    12    16     5
    3    12    19     5
   16    12    19     5
    1    13     8     5
    1    13    17     5
    8    13    17     5
    9    14    18     5
    9    14    35     5
   18    14    35     5
    4    15    11     5
    4    15    36     5
    4    15    37     5
   11    15    36     5
   11    15    37     5
   36    15    37     5
    1    16    12     5
    1    16    20     5
   12    16    20     5
   13    17    18     5
   13    17    38     5
   18    17    38     5
   14    18    17     5
   14    18    39     5
   17    18    39     5
   12    19    21     5
   12    19    40     5
   21    19    40     5
   16    20    22     5
   16    20    41     5
   22    20    41     5
   19    21    22     5
   19    21    42     5
   22    21    42     5
   20    22    21     5
   20    22    43     5
   21    22    43     5
    4    23    44     5
    4    23    45     5
    4    23    46     5
   44    23    45     5
   44    23    46     5
   45    23    46     5
    4    24    47     5
    4    24    48     5
    4    24    49     5
   47    24    48     5
   47    24    49     5
   48    24    49     5

[ dihedrals ]
; ai	aj	ak	al	funct	phi0	cp	mult
   16     1    13    17     9
   13     1    16    20     9
    9     2     5    25     9
    9     2     5    26     9
   10     2     5    25     9
   10     2     5    26     9
    5     2     9     8     9
    5     2     9    14     9
   10     2     9    14     9
    5     2    10    11     9
    5     2    10    31     9
    5     2    10    32     9
    9     2    10    11     9
    9     2    10    31     9
    9     2    10    32     9
    8     3     7    29     9
    8     3     7    30     9
   12     3     7    29     9
   12     3     7    30     9
    7     3     8     9     9
    7     3     8    13     9
   12     3     8    13     9
    7     3    12    16     9
    7     3    12    19     9
    8     3    12    16     9
    8     3    12    19     9
   23     4    15    36     9
   23     4    15    37     9
   24     4    15    36     9
   24     4    15    37     9
   15     4    23    44     9
   15     4    23    45     9
   15     4    23    46     9
   24     4    23    44     9
   24     4    23    45     9
   24     4    23    46     9
   15     4    24    47     9
   15     4    24    48     9
   15     4    24    49     9
   23     4    24    47     9
   23     4    24    48     9
   23     4    24    49     9
    6     5     2     9     9
    6     5     2    10     9
    2     5     6     7     9
    2     5     6    27     9
    2     5     6    28     9
   25     5     6    27     9
   25     5     6    28     9
   26     5     6    27     9
   26     5     6    28     9
    7     6     5    25     9
    7     6     5    26     9
    5     6     7    29     9
    5     6     7    30     9
   27     6     7    29     9
   27     6     7    30     9
   28     6     7    29     9
   28     6     7    30     9
    6     7     3     8     9
    6     7     3    12     9
    3     7     6     5     9
    3     7     6    27     9
    3     7     6    28     9
    9     8     3    12     9
    3     8     9    14     9
   13     8     9    14     9
    3     8    13    17     9
    9     8    13    17     9
    8     9     2    10     9
    2     9     8     3     9
    2     9     8    13     9
    2     9    14    18     9
    2     9    14    35     9
    8     9    14    18     9
    8     9    14    35     9
    2    10    11    15     9
    2    10    11    33     9
    2    10    11    34     9
   31    10    11    33     9
   31    10    11    34     9
   32    10    11    33     9
   32    10    11    34     9
   15    11    10    31     9
   15    11    10    32     9
   10    11    15    36     9
   10    11    15    37     9
   33    11    15    36     9
   33    11    15    37     9
   34    11    15    36     9
   34    11    15    37     9
    3    12    16    20     9
   19    12    16    20     9
    3    12    19    21     9
    3    12    19    40     9
   16    12    19    21     9
   16    12    19    40     9
    8    13     1    16     9
    1    13     8     3     9
    1    13     8     9     9
    1    13    17    18     9
    1    13    17    38     9
    8    13    17    18     9
    8    13    17    38     9
    9    14    18    17     9
    9    14    18    39     9
   35    14    18    39     9
   11    15     4    23     9
   11    15     4    24     9
    4    15    11    10     9
    4    15    11    33     9
    4    15    11    34     9
   12    16     1    13     9
    1    16    12     3     9
    1    16    12    19     9
    1    16    20    22     9
    1    16    20    41     9
   12    16    20    22     9
   12    16    20    41     9
   13    17    18    14     9
   13    17    18    39     9
   38    17    18    39     9
   17    18    14    35     9
   14    18    17    38     9
   12    19    21    22     9
   12    19    21    42     9
   40    19    21    42     9
   16    20    22    21     9
   16    20    22    43     9
   41    20    22    43     9
   22    21    19    40     9
   19    21    22    20     9
   19    21    22    43     9
   42    21    22    43     9
   21    22    20    41     9
   20    22    21    42     9
