;;
;; Generated by CHARMM-GUI (http://www.charmm-gui.org) v1.7
;;
;; psf2itp_mol.py
;;
;; Correspondance:
;; jul316@lehigh.edu or wonpil@lehigh.edu
;;
;; GROMACS topology file for LIG
;;


[ moleculetype ]
; name	nrexcl
LIG	     3

[ atoms ]
; nr	type	resnr	residu	atom	cgnr	charge	mass
     1      SG311      1      LIG      S      1     -0.272    32.0600   ; qtot -0.272
     2       FGA3      1      LIG     F1      2     -0.177    18.9980   ; qtot -0.449
     3       FGA3      1      LIG     F2      3     -0.177    18.9980   ; qtot -0.626
     4       FGA3      1      LIG     F3      4     -0.177    18.9980   ; qtot -0.803
     5      NG301      1      LIG     N1      5     -0.712    14.0070   ; qtot -1.515
     6      NG301      1      LIG     N2      6     -0.631    14.0070   ; qtot -2.146
     7      CG311      1      LIG     C1      7      0.129    12.0110   ; qtot -2.017
     8      CG321      1      LIG     C2      8      0.040    12.0110   ; qtot -1.977
     9      CG321      1      LIG     C3      9      0.126    12.0110   ; qtot -1.851
    10      CG321      1      LIG     C4     10      0.126    12.0110   ; qtot -1.725
    11      CG321      1      LIG     C5     11     -0.264    12.0110   ; qtot -1.989
    12      CG321      1      LIG     C6     12     -0.264    12.0110   ; qtot -2.253
    13     CG2DC1      1      LIG     C7     13      0.266    12.0110   ; qtot -1.987
    14      CG321      1      LIG     C8     14     -0.051    12.0110   ; qtot -2.038
    15      CG321      1      LIG     C9     15      0.060    12.0110   ; qtot -1.978
    16      CG321      1      LIG    C10     16     -0.027    12.0110   ; qtot -2.005
    17     CG2DC1      1      LIG    C11     17     -0.186    12.0110   ; qtot -2.191
    18      CG331      1      LIG    C12     18     -0.098    12.0110   ; qtot -2.289
    19     CG2R61      1      LIG    C13     19      0.046    12.0110   ; qtot -2.243
    20     CG2R61      1      LIG    C14     20     -0.009    12.0110   ; qtot -2.252
    21     CG2R61      1      LIG    C15     21     -0.047    12.0110   ; qtot -2.299
    22     CG2R61      1      LIG    C16     22     -0.121    12.0110   ; qtot -2.420
    23     CG2R61      1      LIG    C17     23     -0.121    12.0110   ; qtot -2.541
    24     CG2R61      1      LIG    C18     24     -0.121    12.0110   ; qtot -2.662
    25     CG2R61      1      LIG    C19     25     -0.322    12.0110   ; qtot -2.984
    26     CG2R61      1      LIG    C20     26     -0.060    12.0110   ; qtot -3.044
    27     CG2R61      1      LIG    C21     27     -0.115    12.0110   ; qtot -3.159
    28     CG2R61      1      LIG    C22     28     -0.115    12.0110   ; qtot -3.274
    29     CG2R61      1      LIG    C23     29     -0.041    12.0110   ; qtot -3.315
    30     CG2R61      1      LIG    C24     30     -0.115    12.0110   ; qtot -3.430
    31      CG302      1      LIG    C25     31      0.589    12.0110   ; qtot -2.841
    32       HGA1      1      LIG     H1     32      0.090     1.0080   ; qtot -2.751
    33       HGA2      1      LIG     H2     33      0.090     1.0080   ; qtot -2.661
    34       HGA2      1      LIG     H3     34      0.090     1.0080   ; qtot -2.571
    35       HGA2      1      LIG     H4     35      0.090     1.0080   ; qtot -2.481
    36       HGA2      1      LIG     H5     36      0.090     1.0080   ; qtot -2.391
    37       HGA2      1      LIG     H6     37      0.090     1.0080   ; qtot -2.301
    38       HGA2      1      LIG     H7     38      0.090     1.0080   ; qtot -2.211
    39       HGA2      1      LIG     H8     39      0.090     1.0080   ; qtot -2.121
    40       HGA2      1      LIG     H9     40      0.090     1.0080   ; qtot -2.031
    41       HGA2      1      LIG    H10     41      0.090     1.0080   ; qtot -1.941
    42       HGA2      1      LIG    H11     42      0.090     1.0080   ; qtot -1.851
    43       HGA2      1      LIG    H12     43      0.090     1.0080   ; qtot -1.761
    44       HGA2      1      LIG    H13     44      0.090     1.0080   ; qtot -1.671
    45       HGA2      1      LIG    H14     45      0.090     1.0080   ; qtot -1.581
    46       HGA2      1      LIG    H15     46      0.090     1.0080   ; qtot -1.491
    47       HGA2      1      LIG    H16     47      0.090     1.0080   ; qtot -1.401
    48       HGA2      1      LIG    H17     48      0.090     1.0080   ; qtot -1.311
    49       HGA3      1      LIG    H18     49      0.090     1.0080   ; qtot -1.221
    50       HGA3      1      LIG    H19     50      0.090     1.0080   ; qtot -1.131
    51       HGA3      1      LIG    H20     51      0.090     1.0080   ; qtot -1.041
    52      HGR61      1      LIG    H21     52      0.118     1.0080   ; qtot -0.923
    53      HGR61      1      LIG    H22     53      0.115     1.0080   ; qtot -0.808
    54      HGR61      1      LIG    H23     54      0.115     1.0080   ; qtot -0.693
    55      HGR61      1      LIG    H24     55      0.115     1.0080   ; qtot -0.578
    56      HGR61      1      LIG    H25     56      0.115     1.0080   ; qtot -0.463
    57      HGR61      1      LIG    H26     57      0.115     1.0080   ; qtot -0.348
    58      HGR61      1      LIG    H27     58      0.115     1.0080   ; qtot -0.233
    59      HGR61      1      LIG    H28     59      0.118     1.0080   ; qtot -0.115
    60      HGR61      1      LIG    H29     60      0.115     1.0080   ; qtot -0.000

[ bonds ]
; ai	aj	funct	b0	Kb
    1    14     1
    1    16     1
    2    31     1
    3    31     1
    4    31     1
    5     8     1
    5     9     1
    5    10     1
    6     7     1
    6    15     1
    6    18     1
    7     8     1
    7    14     1
    7    32     1
    8    33     1
    8    34     1
    9    11     1
    9    35     1
    9    36     1
   10    12     1
   10    37     1
   10    38     1
   11    13     1
   11    39     1
   11    40     1
   12    13     1
   12    41     1
   12    42     1
   13    17     1
   14    43     1
   14    44     1
   15    16     1
   15    45     1
   15    46     1
   16    47     1
   16    48     1
   17    19     1
   17    20     1
   18    49     1
   18    50     1
   18    51     1
   19    21     1
   19    22     1
   20    23     1
   20    24     1
   21    25     1
   21    52     1
   22    26     1
   22    53     1
   23    27     1
   23    54     1
   24    28     1
   24    55     1
   25    29     1
   25    31     1
   26    29     1
   26    56     1
   27    30     1
   27    57     1
   28    30     1
   28    58     1
   29    59     1
   30    60     1

[ pairs ]
; ai	aj	funct	c6	c12
    1     6     1 
    1     8     1 
    1    32     1 
    1    45     1 
    1    46     1 
    2    21     1 
    2    29     1 
    3    21     1 
    3    29     1 
    4    21     1 
    4    29     1 
    5     6     1 
    5    13     1 
    5    14     1 
    5    32     1 
    5    39     1 
    5    40     1 
    5    41     1 
    5    42     1 
    6    33     1 
    6    34     1 
    6    43     1 
    6    44     1 
    6    47     1 
    6    48     1 
    7     9     1 
    7    10     1 
    7    16     1 
    7    45     1 
    7    46     1 
    7    49     1 
    7    50     1 
    7    51     1 
    8    11     1 
    8    12     1 
    8    15     1 
    8    18     1 
    8    35     1 
    8    36     1 
    8    37     1 
    8    38     1 
    8    43     1 
    8    44     1 
    9    12     1 
    9    17     1 
    9    33     1 
    9    34     1 
    9    37     1 
    9    38     1 
   10    11     1 
   10    17     1 
   10    33     1 
   10    34     1 
   10    35     1 
   10    36     1 
   11    19     1 
   11    20     1 
   11    41     1 
   11    42     1 
   12    19     1 
   12    20     1 
   12    39     1 
   12    40     1 
   13    21     1 
   13    22     1 
   13    23     1 
   13    24     1 
   13    35     1 
   13    36     1 
   13    37     1 
   13    38     1 
   14    15     1 
   14    18     1 
   14    33     1 
   14    34     1 
   14    47     1 
   14    48     1 
   15    32     1 
   15    49     1 
   15    50     1 
   15    51     1 
   16    18     1 
   16    43     1 
   16    44     1 
   17    25     1 
   17    26     1 
   17    27     1 
   17    28     1 
   17    39     1 
   17    40     1 
   17    41     1 
   17    42     1 
   17    52     1 
   17    53     1 
   17    54     1 
   17    55     1 
   18    32     1 
   18    45     1 
   18    46     1 
   19    23     1 
   19    24     1 
   19    29     1 
   19    31     1 
   19    56     1 
   20    21     1 
   20    22     1 
   20    30     1 
   20    57     1 
   20    58     1 
   21    26     1 
   21    53     1 
   21    59     1 
   22    25     1 
   22    52     1 
   22    59     1 
   23    28     1 
   23    55     1 
   23    60     1 
   24    27     1 
   24    54     1 
   24    60     1 
   25    56     1 
   26    31     1 
   27    58     1 
   28    57     1 
   29    52     1 
   29    53     1 
   30    54     1 
   30    55     1 
   31    52     1 
   31    59     1 
   32    33     1 
   32    34     1 
   32    43     1 
   32    44     1 
   35    39     1 
   35    40     1 
   36    39     1 
   36    40     1 
   37    41     1 
   37    42     1 
   38    41     1 
   38    42     1 
   45    47     1 
   45    48     1 
   46    47     1 
   46    48     1 
   53    56     1 
   54    57     1 
   55    58     1 
   56    59     1 
   57    60     1 
   58    60     1 

[ angles ] 
; ai	aj	ak	funct	th0	cth	S0	Kub
   14     1    16     5
    8     5     9     5
    8     5    10     5
    9     5    10     5
    7     6    15     5
    7     6    18     5
   15     6    18     5
    6     7     8     5
    6     7    14     5
    6     7    32     5
    8     7    14     5
    8     7    32     5
   14     7    32     5
    5     8     7     5
    5     8    33     5
    5     8    34     5
    7     8    33     5
    7     8    34     5
   33     8    34     5
    5     9    11     5
    5     9    35     5
    5     9    36     5
   11     9    35     5
   11     9    36     5
   35     9    36     5
    5    10    12     5
    5    10    37     5
    5    10    38     5
   12    10    37     5
   12    10    38     5
   37    10    38     5
    9    11    13     5
    9    11    39     5
    9    11    40     5
   13    11    39     5
   13    11    40     5
   39    11    40     5
   10    12    13     5
   10    12    41     5
   10    12    42     5
   13    12    41     5
   13    12    42     5
   41    12    42     5
   11    13    12     5
   11    13    17     5
   12    13    17     5
    1    14     7     5
    1    14    43     5
    1    14    44     5
    7    14    43     5
    7    14    44     5
   43    14    44     5
    6    15    16     5
    6    15    45     5
    6    15    46     5
   16    15    45     5
   16    15    46     5
   45    15    46     5
    1    16    15     5
    1    16    47     5
    1    16    48     5
   15    16    47     5
   15    16    48     5
   47    16    48     5
   13    17    19     5
   13    17    20     5
   19    17    20     5
    6    18    49     5
    6    18    50     5
    6    18    51     5
   49    18    50     5
   49    18    51     5
   50    18    51     5
   17    19    21     5
   17    19    22     5
   21    19    22     5
   17    20    23     5
   17    20    24     5
   23    20    24     5
   19    21    25     5
   19    21    52     5
   25    21    52     5
   19    22    26     5
   19    22    53     5
   26    22    53     5
   20    23    27     5
   20    23    54     5
   27    23    54     5
   20    24    28     5
   20    24    55     5
   28    24    55     5
   21    25    29     5
   21    25    31     5
   29    25    31     5
   22    26    29     5
   22    26    56     5
   29    26    56     5
   23    27    30     5
   23    27    57     5
   30    27    57     5
   24    28    30     5
   24    28    58     5
   30    28    58     5
   25    29    26     5
   25    29    59     5
   26    29    59     5
   27    30    28     5
   27    30    60     5
   28    30    60     5
    2    31     3     5
    2    31     4     5
    2    31    25     5
    3    31     4     5
    3    31    25     5
    4    31    25     5

[ dihedrals ]
; ai	aj	ak	al	funct	phi0	cp	mult
   16     1    14    43     9
   16     1    14    44     9
   14     1    16    15     9
   14     1    16    47     9
   14     1    16    48     9
    9     5     8    33     9
    9     5     8    34     9
   10     5     8    33     9
   10     5     8    34     9
    8     5     9    11     9
    8     5     9    35     9
    8     5     9    36     9
   10     5     9    11     9
   10     5     9    35     9
   10     5     9    36     9
    8     5    10    12     9
    8     5    10    37     9
    8     5    10    38     9
    9     5    10    12     9
    9     5    10    37     9
    9     5    10    38     9
   15     6     7    32     9
   18     6     7    32     9
    7     6    15    16     9
    7     6    15    45     9
    7     6    15    46     9
   18     6    15    45     9
   18     6    15    46     9
    7     6    18    49     9
    7     6    18    50     9
    7     6    18    51     9
   15     6    18    49     9
   15     6    18    50     9
   15     6    18    51     9
    8     7     6    15     9
    8     7     6    18     9
   14     7     6    15     9
   14     7     6    18     9
    6     7     8    33     9
    6     7     8    34     9
   14     7     8    33     9
   14     7     8    34     9
   32     7     8    33     9
   32     7     8    34     9
    6     7    14    43     9
    6     7    14    44     9
    8     7    14    43     9
    8     7    14    44     9
   32     7    14    43     9
   32     7    14    44     9
    7     8     5     9     9
    7     8     5    10     9
    5     8     7     6     9
    5     8     7    14     9
    5     8     7    32     9
    5     9    11    13     9
    5     9    11    39     9
    5     9    11    40     9
   35     9    11    39     9
   35     9    11    40     9
   36     9    11    39     9
   36     9    11    40     9
    5    10    12    13     9
    5    10    12    41     9
    5    10    12    42     9
   37    10    12    41     9
   37    10    12    42     9
   38    10    12    41     9
   38    10    12    42     9
   13    11     9    35     9
   13    11     9    36     9
    9    11    13    12     9
    9    11    13    17     9
   13    12    10    37     9
   13    12    10    38     9
   10    12    13    11     9
   10    12    13    17     9
   12    13    11    39     9
   12    13    11    40     9
   17    13    11    39     9
   17    13    11    40     9
   11    13    12    41     9
   11    13    12    42     9
   17    13    12    41     9
   17    13    12    42     9
   11    13    17    19     9
   11    13    17    20     9
   12    13    17    19     9
   12    13    17    20     9
    7    14     1    16     9
    1    14     7     6     9
    1    14     7     8     9
    1    14     7    32     9
   16    15     6    18     9
    6    15    16    47     9
    6    15    16    48     9
   45    15    16    47     9
   45    15    16    48     9
   46    15    16    47     9
   46    15    16    48     9
    1    16    15     6     9
    1    16    15    45     9
    1    16    15    46     9
   13    17    19    21     9
   13    17    19    22     9
   20    17    19    21     9
   20    17    19    22     9
   13    17    20    23     9
   13    17    20    24     9
   19    17    20    23     9
   19    17    20    24     9
   17    19    21    25     9
   17    19    21    52     9
   22    19    21    25     9
   22    19    21    52     9
   17    19    22    26     9
   17    19    22    53     9
   21    19    22    26     9
   21    19    22    53     9
   17    20    23    27     9
   17    20    23    54     9
   24    20    23    27     9
   24    20    23    54     9
   17    20    24    28     9
   17    20    24    55     9
   23    20    24    28     9
   23    20    24    55     9
   19    21    25    29     9
   19    21    25    31     9
   19    22    26    29     9
   19    22    26    56     9
   53    22    26    56     9
   20    23    27    30     9
   20    23    27    57     9
   54    23    27    57     9
   20    24    28    30     9
   20    24    28    58     9
   55    24    28    58     9
   29    25    21    52     9
   31    25    21    52     9
   21    25    29    26     9
   21    25    29    59     9
   31    25    29    59     9
   29    26    22    53     9
   22    26    29    25     9
   22    26    29    59     9
   56    26    29    59     9
   30    27    23    54     9
   23    27    30    28     9
   23    27    30    60     9
   57    27    30    60     9
   30    28    24    55     9
   24    28    30    27     9
   24    28    30    60     9
   58    28    30    60     9
   26    29    25    31     9
   25    29    26    56     9
   28    30    27    57     9
   27    30    28    58     9
    2    31    25    21     9
    2    31    25    29     9
    3    31    25    21     9
    3    31    25    29     9
    4    31    25    21     9
    4    31    25    29     9
